/*--------------------------------*- C++ -*----------------------------------*\
| =========                 |                                                 |
| \\      /  F ield         | OpenFOAM: The Open Source CFD Toolbox           |
|  \\    /   O peration     | Version:  2212                                  |
|   \\  /    A nd           | Website:  www.openfoam.com                      |
|    \\/     M anipulation  |                                                 |
\*---------------------------------------------------------------------------*/
FoamFile
{
    version     2.0;
    format      ascii;
    arch        "LSB;label=32;scalar=64";
    class       volScalarField;
    location    "1.365";
    object      p;
}
// * * * * * * * * * * * * * * * * * * * * * * * * * * * * * * * * * * * * * //

dimensions      [0 2 -2 0 0 0 0];

internalField   nonuniform List<scalar> 
400
(
3.03363e-06
-0.00582484
-0.0129629
-0.0184154
-0.020433
-0.0182394
-0.0117749
-0.00148472
0.0118364
0.0271483
0.0432437
0.0588225
0.0725783
0.0833082
0.0900525
0.0922667
0.0900254
0.0842434
0.0768801
0.0710665
0.00578125
-0.000218079
-0.00580414
-0.00954299
-0.0105996
-0.00843349
-0.00297078
0.00547326
0.016302
0.0287108
0.041749
0.0543853
0.0655859
0.0744095
0.0801199
0.0823154
0.0810769
0.0770543
0.0712735
0.0653172
0.0133354
0.00503373
-0.000995487
-0.00442352
-0.00527353
-0.00326469
0.00160151
0.00902672
0.0185012
0.0293484
0.0407646
0.0518689
0.0617679
0.0696358
0.0748065
0.0768776
0.0758412
0.0720854
0.0658048
0.0575347
0.0201396
0.00869598
0.0012257
-0.00266889
-0.00372268
-0.00188605
0.00273043
0.00978368
0.0187795
0.0290942
0.0399912
0.0506533
0.0602322
0.0679153
0.0730026
0.0750009
0.0737652
0.0694555
0.0616022
0.0501017
0.0245022
0.00977311
0.000589626
-0.00398721
-0.00530271
-0.003508
0.00117391
0.00833365
0.0174611
0.0279482
0.0390842
0.0500691
0.0600481
0.0681643
0.0736256
0.075797
0.0743682
0.069289
0.0595247
0.0445362
0.025178
0.00714998
-0.00380218
-0.00905746
-0.0105125
-0.00850052
-0.00335753
0.00442856
0.0143124
0.0256781
0.0378129
0.0499025
0.0610473
0.0703024
0.0767338
0.079516
0.0781381
0.0723327
0.0605384
0.0418891
0.0210935
-0.00026249
-0.0129347
-0.0187096
-0.0200301
-0.0174143
-0.0113189
-0.00232043
0.00898956
0.0219753
0.0359087
0.0499435
0.0631114
0.0743445
0.0825211
0.0865687
0.0857198
0.0794462
0.0656195
0.0430708
0.0111427
-0.0136184
-0.0278754
-0.0338546
-0.0346038
-0.0308578
-0.0232133
-0.0123458
0.00110411
0.016483
0.0330517
0.0499328
0.0660826
0.0802891
0.0912
0.0974293
0.0978695
0.0916352
0.0758954
0.0491156
-0.00596734
-0.0342668
-0.0498704
-0.055549
-0.0550905
-0.049515
-0.0395939
-0.0261138
-0.00975769
0.00882228
0.0289002
0.0495926
0.0697967
0.0881538
0.103047
0.1127
0.11555
0.110191
0.0928335
0.0614106
-0.0318575
-0.0638765
-0.0804173
-0.0850076
-0.0824206
-0.0740788
-0.0609813
-0.044037
-0.023952
-0.00133747
0.0231449
0.0486603
0.0740948
0.0979715
0.118395
0.133125
0.139988
0.136817
0.11844
0.0819331
-0.0686678
-0.104604
-0.121345
-0.12359
-0.117516
-0.105127
-0.0877187
-0.0663259
-0.0416374
-0.0141561
0.0156051
0.0469526
0.0788551
0.109793
0.137623
0.159585
0.172726
0.173778
0.15552
0.11357
-0.119403
-0.159357
-0.174915
-0.172757
-0.161148
-0.142929
-0.119759
-0.0927774
-0.0625778
-0.029448
0.00637277
0.0444731
0.0840547
0.123703
0.161136
0.193086
0.215668
0.224077
0.20805
0.160632
-0.188629
-0.232242
-0.243939
-0.233948
-0.213694
-0.187154
-0.156373
-0.122501
-0.0858981
-0.0464723
-0.00401461
0.0415387
0.089842
0.139829
0.189319
0.234689
0.271074
0.291664
0.281743
0.229776
-0.283975
-0.329305
-0.331831
-0.30828
-0.274708
-0.236439
-0.195764
-0.15361
-0.10984
-0.063745
-0.0144377
0.0388636
0.0965545
0.158277
0.222374
0.285288
0.341397
0.381575
0.384914
0.331834
-0.419318
-0.459671
-0.44235
-0.395791
-0.342128
-0.287739
-0.234615
-0.182929
-0.131609
-0.0789843
-0.0232134
0.0374759
0.104554
0.178838
0.259862
0.344971
0.428617
0.499701
0.529676
0.485392
-0.620531
-0.636743
-0.578676
-0.494192
-0.411239
-0.335657
-0.267779
-0.205976
-0.147535
-0.0893818
-0.0284249
0.0383495
0.113808
0.200473
0.299976
0.412026
0.533031
0.651776
0.732773
0.722397
-0.935922
-0.878513
-0.74174
-0.597947
-0.474391
-0.372657
-0.288867
-0.217761
-0.153952
-0.0924622
-0.0287157
0.0416973
0.123265
0.22072
0.338927
0.482156
0.651998
0.841343
1.01527
1.0975
-1.47642
-1.20663
-0.920501
-0.691386
-0.517303
-0.387542
-0.290059
-0.213335
-0.148122
-0.0872136
-0.0245758
0.0454593
0.128939
0.233073
0.367105
0.54268
0.771295
1.05932
1.40329
1.73014
-2.53965
-1.63055
-1.04444
-0.710957
-0.495748
-0.352091
-0.254529
-0.183581
-0.126167
-0.0735932
-0.0192672
0.0427887
0.119214
0.218784
0.354814
0.547985
0.826395
1.23658
1.91168
2.92419
-4.36666
-2.04463
-0.97354
-0.563178
-0.357844
-0.240144
-0.170117
-0.123781
-0.0874794
-0.0535085
-0.0166527
0.0276624
0.0846091
0.161731
0.272413
0.442101
0.718221
1.22571
2.41104
4.84853
)
;

boundaryField
{
    movingWall
    {
        type            zeroGradient;
    }
    fixedWalls
    {
        type            zeroGradient;
    }
    frontAndBack
    {
        type            empty;
    }
}


// ************************************************************************* //
