/*--------------------------------*- C++ -*----------------------------------*\
| =========                 |                                                 |
| \\      /  F ield         | OpenFOAM: The Open Source CFD Toolbox           |
|  \\    /   O peration     | Version:  2212                                  |
|   \\  /    A nd           | Website:  www.openfoam.com                      |
|    \\/     M anipulation  |                                                 |
\*---------------------------------------------------------------------------*/
FoamFile
{
    version     2.0;
    format      ascii;
    arch        "LSB;label=32;scalar=64";
    class       volVectorField;
    location    "2.475";
    object      U;
}
// * * * * * * * * * * * * * * * * * * * * * * * * * * * * * * * * * * * * * //

dimensions      [0 1 -1 0 0 0 0];

internalField   nonuniform List<vector> 
400
(
(0.00141447 -0.00145813 0)
(0.00399488 -0.00160992 0)
(0.00530036 -0.00104418 0)
(0.00429817 -0.000473069 0)
(0.000426087 0.000269576 0)
(-0.00732408 0.00169245 0)
(-0.0199173 0.00431956 0)
(-0.0372087 0.00774989 0)
(-0.0568259 0.0101616 0)
(-0.0741411 0.00973113 0)
(-0.0846721 0.00648259 0)
(-0.0858988 0.00177194 0)
(-0.0768527 -0.00318749 0)
(-0.0581586 -0.00763833 0)
(-0.0333464 -0.0101491 0)
(-0.00662643 -0.0092547 0)
(0.0144174 -0.00472753 0)
(0.0221725 0.00238185 0)
(0.0149545 0.0059268 0)
(0.00406624 0.00437712 0)
(0.00125852 -0.00409349 0)
(0.00193352 -0.00302839 0)
(-0.00190322 0.000923826 0)
(-0.0121037 0.00610279 0)
(-0.0303945 0.0129095 0)
(-0.0573954 0.0215898 0)
(-0.0903139 0.0301201 0)
(-0.123032 0.0343533 0)
(-0.149676 0.0316994 0)
(-0.166752 0.0227037 0)
(-0.172665 0.00945566 0)
(-0.167256 -0.00576026 0)
(-0.151083 -0.0211797 0)
(-0.124758 -0.0344359 0)
(-0.0904834 -0.0419873 0)
(-0.0509549 -0.0397413 0)
(-0.0119088 -0.0254582 0)
(0.0151276 -0.00199321 0)
(0.016576 0.0147986 0)
(0.00526908 0.0138074 0)
(-0.000609622 -0.00406504 0)
(-0.00592543 0.00212673 0)
(-0.0193246 0.0137268 0)
(-0.0420629 0.0286149 0)
(-0.0747067 0.0451165 0)
(-0.113563 0.0592652 0)
(-0.151828 0.0660206 0)
(-0.183926 0.0628207 0)
(-0.207346 0.0505135 0)
(-0.22128 0.0313644 0)
(-0.22561 0.00766678 0)
(-0.220878 -0.0185395 0)
(-0.207394 -0.0451499 0)
(-0.184718 -0.0686991 0)
(-0.15259 -0.0842517 0)
(-0.111052 -0.0850377 0)
(-0.062024 -0.0645183 0)
(-0.013679 -0.0229307 0)
(0.00889984 0.0159714 0)
(0.00411323 0.0220879 0)
(-0.00333579 0.00218511 0)
(-0.0164581 0.0174932 0)
(-0.0404311 0.0385043 0)
(-0.0735329 0.0624438 0)
(-0.113691 0.0841232 0)
(-0.154639 0.0972258 0)
(-0.19005 0.0978341 0)
(-0.217328 0.0864362 0)
(-0.236412 0.0658637 0)
(-0.247759 0.0387841 0)
(-0.252116 0.00713151 0)
(-0.250281 -0.0277196 0)
(-0.242251 -0.0636592 0)
(-0.227016 -0.0977923 0)
(-0.202661 -0.124893 0)
(-0.166573 -0.136463 0)
(-0.116477 -0.120798 0)
(-0.0545013 -0.0689377 0)
(-0.00116422 0.0018998 0)
(0.00468363 0.0265468 0)
(-0.00609503 0.0154415 0)
(-0.0262299 0.042079 0)
(-0.0579163 0.0711749 0)
(-0.0960162 0.100516 0)
(-0.136651 0.122521 0)
(-0.173268 0.13096 0)
(-0.20182 0.124397 0)
(-0.22205 0.105678 0)
(-0.235051 0.078553 0)
(-0.242387 0.0458574 0)
(-0.245753 0.00924783 0)
(-0.246172 -0.0304363 0)
(-0.243551 -0.072071 0)
(-0.237238 -0.114332 0)
(-0.224561 -0.153443 0)
(-0.200961 -0.181213 0)
(-0.160649 -0.182772 0)
(-0.0992797 -0.137987 0)
(-0.0213413 -0.0386031 0)
(0.00701677 0.0254466 0)
(-0.00767098 0.0335691 0)
(-0.0318565 0.0718829 0)
(-0.0666919 0.106391 0)
(-0.104343 0.137417 0)
(-0.140449 0.156512 0)
(-0.169502 0.158684 0)
(-0.189656 0.14491 0)
(-0.201986 0.119713 0)
(-0.208325 0.0874848 0)
(-0.211058 0.051343 0)
(-0.212309 0.0129243 0)
(-0.213236 -0.0273083 0)
(-0.214153 -0.0697728 0)
(-0.215097 -0.114956 0)
(-0.213919 -0.161772 0)
(-0.2055 -0.204882 0)
(-0.181852 -0.23028 0)
(-0.134638 -0.211227 0)
(-0.0598397 -0.11486 0)
(0.00535202 0.0131464 0)
(-0.00744076 0.0535084 0)
(-0.0319451 0.102648 0)
(-0.0655798 0.13984 0)
(-0.0989747 0.169701 0)
(-0.1282 0.184063 0)
(-0.149182 0.179448 0)
(-0.16174 0.158841 0)
(-0.167676 0.128013 0)
(-0.169275 0.0919194 0)
(-0.16908 0.0538292 0)
(-0.168855 0.015221 0)
(-0.169445 -0.023778 0)
(-0.171498 -0.0643154 0)
(-0.175634 -0.10792 0)
(-0.181174 -0.15593 0)
(-0.184346 -0.207316 0)
(-0.17711 -0.253005 0)
(-0.149511 -0.266803 0)
(-0.0954072 -0.199324 0)
(-0.00842112 -0.0147959 0)
(-0.00550209 0.0720569 0)
(-0.0269304 0.130949 0)
(-0.0561461 0.168975 0)
(-0.0833348 0.19605 0)
(-0.105325 0.20503 0)
(-0.119462 0.193858 0)
(-0.126602 0.167187 0)
(-0.128855 0.131784 0)
(-0.128609 0.0929725 0)
(-0.127983 0.0538595 0)
(-0.127899 0.0154772 0)
(-0.128619 -0.0224396 0)
(-0.130687 -0.0609804 0)
(-0.134961 -0.101648 0)
(-0.142119 -0.146811 0)
(-0.150738 -0.199158 0)
(-0.154524 -0.25661 0)
(-0.14297 -0.299121 0)
(-0.108909 -0.269185 0)
(-0.0294712 -0.0725396 0)
(-0.00244445 0.0864298 0)
(-0.0184241 0.154194 0)
(-0.0412649 0.192156 0)
(-0.0615782 0.215778 0)
(-0.0769536 0.219674 0)
(-0.0859025 0.203065 0)
(-0.0897745 0.171795 0)
(-0.0905989 0.133273 0)
(-0.0904715 0.092972 0)
(-0.0907782 0.0536343 0)
(-0.0916908 0.0156993 0)
(-0.0930942 -0.0215276 0)
(-0.0952211 -0.0588957 0)
(-0.0987411 -0.0973023 0)
(-0.104987 -0.138827 0)
(-0.114766 -0.188052 0)
(-0.124613 -0.249608 0)
(-0.123809 -0.313864 0)
(-0.104998 -0.325407 0)
(-0.0362026 -0.156876 0)
(0.00108009 0.0945785 0)
(-0.00801166 0.170718 0)
(-0.0233794 0.208857 0)
(-0.0367864 0.229538 0)
(-0.0463457 0.229552 0)
(-0.0514653 0.209088 0)
(-0.0535087 0.174767 0)
(-0.0540794 0.134432 0)
(-0.0547205 0.0935731 0)
(-0.0561536 0.0544699 0)
(-0.0581619 0.0169882 0)
(-0.0605164 -0.0198648 0)
(-0.0632323 -0.0567608 0)
(-0.0666198 -0.0940142 0)
(-0.0718324 -0.132707 0)
(-0.080709 -0.177352 0)
(-0.0932182 -0.237072 0)
(-0.0990819 -0.314268 0)
(-0.0937063 -0.362653 0)
(-0.0304523 -0.234691 0)
(0.0045113 0.0955303 0)
(0.00274472 0.179498 0)
(-0.00481801 0.218741 0)
(-0.0115404 0.237237 0)
(-0.015906 0.2346 0)
(-0.0178269 0.211988 0)
(-0.0184841 0.176373 0)
(-0.0189128 0.135616 0)
(-0.0200504 0.0949893 0)
(-0.0221748 0.0564167 0)
(-0.0249423 0.0194634 0)
(-0.0281841 -0.0169522 0)
(-0.0319127 -0.0534912 0)
(-0.0361541 -0.0902025 0)
(-0.0416094 -0.127253 0)
(-0.0498626 -0.167903 0)
(-0.0638853 -0.223248 0)
(-0.0736742 -0.3073 0)
(-0.0805142 -0.386726 0)
(-0.0227914 -0.298444 0)
(0.00733092 0.0896811 0)
(0.0128152 0.180285 0)
(0.0129567 0.221988 0)
(0.0127236 0.239774 0)
(0.0134309 0.236135 0)
(0.0147754 0.213052 0)
(0.0157827 0.177518 0)
(0.0159259 0.137208 0)
(0.0148413 0.0971522 0)
(0.0125512 0.0591736 0)
(0.00939017 0.0228649 0)
(0.00541834 -0.012827 0)
(0.000518455 -0.0486252 0)
(-0.00523206 -0.0845791 0)
(-0.0122546 -0.120427 0)
(-0.0210549 -0.157839 0)
(-0.0370716 -0.207562 0)
(-0.0493091 -0.293319 0)
(-0.068016 -0.398697 0)
(-0.0146126 -0.351226 0)
(0.00877063 0.078213 0)
(0.0208331 0.17319 0)
(0.0282616 0.218126 0)
(0.0341272 0.236132 0)
(0.0398688 0.232617 0)
(0.0450728 0.210495 0)
(0.0487596 0.176417 0)
(0.0505597 0.137597 0)
(0.0504391 0.0988197 0)
(0.0486281 0.0619255 0)
(0.0454495 0.0267126 0)
(0.0408875 -0.00777264 0)
(0.0348194 -0.0422597 0)
(0.0272675 -0.0768801 0)
(0.0175922 -0.111282 0)
(0.00664864 -0.146124 0)
(-0.0125682 -0.190811 0)
(-0.0258747 -0.274947 0)
(-0.0566029 -0.40141 0)
(-0.00649115 -0.393446 0)
(0.0082361 0.0632334 0)
(0.025459 0.158764 0)
(0.0399294 0.207612 0)
(0.0520548 0.227342 0)
(0.0632587 0.225331 0)
(0.0731532 0.20549 0)
(0.0806669 0.174008 0)
(0.0853185 0.137485 0)
(0.0871468 0.10049 0)
(0.0864746 0.0650246 0)
(0.0836719 0.0312571 0)
(0.0786609 -0.00158672 0)
(0.0712999 -0.0340062 0)
(0.0617685 -0.0664762 0)
(0.0489963 -0.0987539 0)
(0.0345492 -0.13097 0)
(0.0107156 -0.170783 0)
(-0.00255803 -0.251823 0)
(-0.046148 -0.397692 0)
(0.00219899 -0.42871 0)
(0.00571206 0.0479594 0)
(0.0252684 0.13924 0)
(0.0453763 0.190123 0)
(0.0633919 0.210906 0)
(0.0804859 0.210453 0)
(0.0961801 0.193596 0)
(0.10904 0.165891 0)
(0.118187 0.133046 0)
(0.123447 0.099217 0)
(0.125066 0.0664546 0)
(0.123337 0.0352908 0)
(0.11841 0.00519607 0)
(0.109844 -0.0241004 0)
(0.0982281 -0.0532758 0)
(0.0816953 -0.0823377 0)
(0.0630862 -0.112027 0)
(0.0340231 -0.148041 0)
(0.0205821 -0.226181 0)
(-0.0362617 -0.390784 0)
(0.0126138 -0.458266 0)
(0.00188294 0.035367 0)
(0.0198741 0.117209 0)
(0.0444794 0.168551 0)
(0.0685564 0.190427 0)
(0.0922296 0.191649 0)
(0.114592 0.177962 0)
(0.133876 0.154574 0)
(0.148691 0.12624 0)
(0.158486 0.0965595 0)
(0.163402 0.067481 0)
(0.163417 0.0398196 0)
(0.159214 0.0134038 0)
(0.149592 -0.0120038 0)
(0.136056 -0.0369363 0)
(0.115499 -0.0617149 0)
(0.0927623 -0.0880279 0)
(0.0583293 -0.121323 0)
(0.0431433 -0.198019 0)
(-0.0250855 -0.380991 0)
(0.0272845 -0.481157 0)
(-0.00317843 0.0310187 0)
(0.0071742 0.0980242 0)
(0.0308689 0.139782 0)
(0.0603436 0.158731 0)
(0.0914964 0.160742 0)
(0.121956 0.150538 0)
(0.149155 0.132411 0)
(0.171244 0.110013 0)
(0.187088 0.086293 0)
(0.196841 0.0628946 0)
(0.199818 0.0407606 0)
(0.197483 0.019888 0)
(0.187635 0.000145525 0)
(0.173373 -0.0190139 0)
(0.149629 -0.0379772 0)
(0.12427 -0.0600202 0)
(0.0849405 -0.0924722 0)
(0.0655536 -0.172037 0)
(-0.00694502 -0.366002 0)
(0.0508675 -0.489105 0)
(-0.0121869 0.0210442 0)
(-0.00784777 0.0878129 0)
(0.0145343 0.119347 0)
(0.0483257 0.130047 0)
(0.0864665 0.129292 0)
(0.124423 0.121107 0)
(0.158961 0.107956 0)
(0.187625 0.0916839 0)
(0.208952 0.0745492 0)
(0.223605 0.0575157 0)
(0.229775 0.0417183 0)
(0.230748 0.0270046 0)
(0.222235 0.0138133 0)
(0.211011 0.00106264 0)
(0.18773 -0.0116721 0)
(0.16585 -0.029624 0)
(0.124421 -0.0616432 0)
(0.102658 -0.14176 0)
(0.034959 -0.325128 0)
(0.0914012 -0.455154 0)
(-0.104889 0.0842209 0)
(-0.0772891 0.0698769 0)
(-0.0501956 0.0710406 0)
(-0.000935592 0.07389 0)
(0.0492599 0.073671 0)
(0.0990208 0.0697466 0)
(0.143937 0.0632093 0)
(0.184561 0.0546936 0)
(0.215825 0.0459133 0)
(0.243394 0.0370147 0)
(0.259335 0.0291133 0)
(0.274716 0.0217497 0)
(0.276118 0.0156996 0)
(0.281187 0.00985255 0)
(0.267046 0.00360159 0)
(0.261685 -0.00734359 0)
(0.22471 -0.0328874 0)
(0.214018 -0.0939049 0)
(0.148944 -0.22952 0)
(0.170407 -0.341469 0)
(0.130717 0.104461 0)
(0.159943 0.0768225 0)
(0.214545 0.0548411 0)
(0.272566 0.0427595 0)
(0.323731 0.036533 0)
(0.374156 0.0322095 0)
(0.416846 0.0290271 0)
(0.460455 0.0256529 0)
(0.492448 0.0230349 0)
(0.526956 0.019903 0)
(0.54622 0.0178463 0)
(0.572126 0.0149748 0)
(0.57882 0.0136495 0)
(0.597909 0.0108973 0)
(0.59053 0.0100409 0)
(0.600318 0.00561897 0)
(0.566029 0.000691683 0)
(0.547494 -0.017847 0)
(0.436724 -0.050211 0)
(0.337385 -0.101352 0)
)
;

boundaryField
{
    movingWall
    {
        type            fixedValue;
        value           uniform (1 0 0);
    }
    fixedWalls
    {
        type            noSlip;
    }
    frontAndBack
    {
        type            empty;
    }
}


// ************************************************************************* //
