/*--------------------------------*- C++ -*----------------------------------*\
| =========                 |                                                 |
| \\      /  F ield         | OpenFOAM: The Open Source CFD Toolbox           |
|  \\    /   O peration     | Version:  2212                                  |
|   \\  /    A nd           | Website:  www.openfoam.com                      |
|    \\/     M anipulation  |                                                 |
\*---------------------------------------------------------------------------*/
FoamFile
{
    version     2.0;
    format      ascii;
    arch        "LSB;label=32;scalar=64";
    class       surfaceScalarField;
    location    "3.545";
    object      phi;
}
// * * * * * * * * * * * * * * * * * * * * * * * * * * * * * * * * * * * * * //

dimensions      [0 3 -1 0 0 0 0];

oriented        oriented;

internalField   nonuniform List<scalar> 
760
(
1.5107e-07
-1.5107e-07
2.82968e-07
-1.31898e-07
2.97011e-07
-1.40437e-08
1.71292e-07
1.25719e-07
-1.2897e-07
3.00262e-07
-6.65862e-07
5.36892e-07
-1.47073e-06
8.04872e-07
-2.45981e-06
9.8908e-07
-3.43653e-06
9.76717e-07
-4.17164e-06
7.3511e-07
-4.49835e-06
3.26714e-07
-4.32008e-06
-1.78272e-07
-3.57795e-06
-7.42135e-07
-2.38324e-06
-1.19471e-06
-9.62363e-07
-1.42088e-06
3.14176e-07
-1.27654e-06
1.05833e-06
-7.44153e-07
1.01361e-06
4.47186e-08
4.54033e-07
5.59578e-07
4.54033e-07
1.16732e-07
-2.67803e-07
6.00943e-08
-7.52598e-08
-3.09127e-07
3.55177e-07
-1.07913e-06
8.95727e-07
-2.29476e-06
1.51589e-06
-3.87913e-06
2.12126e-06
-5.58929e-06
2.51503e-06
-7.11787e-06
2.51766e-06
-8.24099e-06
2.09983e-06
-8.84756e-06
1.34169e-06
-8.88971e-06
3.68862e-07
-8.34369e-06
-7.24298e-07
-7.24039e-06
-1.84543e-06
-5.61139e-06
-2.82371e-06
-3.59819e-06
-3.43408e-06
-1.50162e-06
-3.37311e-06
1.55037e-07
-2.40081e-06
8.39056e-07
-6.393e-07
5.17476e-07
8.81158e-07
9.71509e-07
-1.33007e-07
-1.34795e-07
-6.37047e-07
4.2878e-07
-1.6137e-06
1.33183e-06
-3.10409e-06
2.38612e-06
-4.98847e-06
3.40027e-06
-6.9763e-06
4.10909e-06
-8.75706e-06
4.29579e-06
-1.01498e-05
3.91036e-06
-1.11007e-05
3.05082e-06
-1.16017e-05
1.84267e-06
-1.16035e-05
3.70608e-07
-1.11549e-05
-1.17292e-06
-1.02378e-05
-2.76254e-06
-8.79777e-06
-4.26369e-06
-6.81407e-06
-5.41778e-06
-4.37416e-06
-5.81301e-06
-1.87292e-06
-4.90205e-06
-9.35964e-08
-2.41862e-06
2.91142e-07
4.9642e-07
1.26265e-06
-4.96181e-07
3.61386e-07
-1.54148e-06
1.47408e-06
-3.07488e-06
2.86523e-06
-5.00438e-06
4.31562e-06
-7.07815e-06
5.47404e-06
-8.99393e-06
6.02487e-06
-1.05495e-05
5.85133e-06
-1.16994e-05
5.06026e-06
-1.24705e-05
3.82198e-06
-1.28978e-05
2.26994e-06
-1.2968e-05
4.40866e-07
-1.27365e-05
-1.40447e-06
-1.21667e-05
-3.33237e-06
-1.11566e-05
-5.27374e-06
-9.57504e-06
-6.99936e-06
-7.29744e-06
-8.09061e-06
-4.36203e-06
-7.83746e-06
-1.37185e-06
-5.4088e-06
1.17587e-07
-9.93019e-07
1.38024e-06
-8.47715e-07
1.2091e-06
-2.32201e-06
2.94837e-06
-4.16137e-06
4.70459e-06
-6.17773e-06
6.33198e-06
-8.0961e-06
7.39241e-06
-9.6948e-06
7.62357e-06
-1.08943e-05
7.05081e-06
-1.17189e-05
5.88485e-06
-1.22301e-05
4.33321e-06
-1.25012e-05
2.54104e-06
-1.26222e-05
5.61845e-07
-1.25834e-05
-1.44321e-06
-1.23745e-05
-3.54129e-06
-1.19154e-05
-5.73291e-06
-1.1019e-05
-7.8957e-06
-9.39805e-06
-9.71158e-06
-6.75626e-06
-1.04792e-05
-3.19432e-06
-8.97074e-06
-2.62346e-07
-3.92499e-06
1.11789e-06
-1.0649e-06
2.274e-06
-2.73192e-06
4.61539e-06
-4.59448e-06
6.56715e-06
-6.4264e-06
8.1639e-06
-8.00603e-06
8.97205e-06
-9.20057e-06
8.8181e-06
-1.00025e-05
7.85271e-06
-1.04752e-05
6.35754e-06
-1.0709e-05
4.56703e-06
-1.0805e-05
2.63711e-06
-1.08854e-05
6.42175e-07
-1.09419e-05
-1.38674e-06
-1.09882e-05
-3.49498e-06
-1.09937e-05
-5.7274e-06
-1.08024e-05
-8.08695e-06
-1.00856e-05
-1.04284e-05
-8.35128e-06
-1.22136e-05
-5.19e-06
-1.2132e-05
-1.14876e-06
-7.96623e-06
-3.08644e-08
-1.08588e-06
3.35988e-06
-2.70348e-06
6.233e-06
-4.37429e-06
8.23795e-06
-5.88903e-06
9.67864e-06
-7.08823e-06
1.01712e-05
-7.90649e-06
9.63637e-06
-8.3781e-06
8.32431e-06
-8.5887e-06
6.56815e-06
-8.64248e-06
4.6208e-06
-8.63892e-06
2.63355e-06
-8.66388e-06
6.67141e-07
-8.73894e-06
-1.31168e-06
-8.88366e-06
-3.35026e-06
-9.10842e-06
-5.50264e-06
-9.35296e-06
-7.84241e-06
-9.38128e-06
-1.04e-05
-8.67222e-06
-1.29227e-05
-6.47469e-06
-1.43296e-05
-2.397e-06
-1.20439e-05
-2.42787e-06
-9.13476e-07
4.27336e-06
-2.299e-06
7.61852e-06
-3.66469e-06
9.60365e-06
-4.82761e-06
1.08416e-05
-5.68592e-06
1.10296e-05
-6.21975e-06
1.01702e-05
-6.4834e-06
8.58796e-06
-6.56703e-06
6.65177e-06
-6.56829e-06
4.62206e-06
-6.56311e-06
2.62837e-06
-6.59066e-06
6.94697e-07
-6.66983e-06
-1.23251e-06
-6.82293e-06
-3.19717e-06
-7.0808e-06
-5.24477e-06
-7.45836e-06
-7.46484e-06
-7.85875e-06
-9.99965e-06
-7.8656e-06
-1.29158e-05
-6.66159e-06
-1.55336e-05
-3.5465e-06
-1.5159e-05
-5.97437e-06
-6.08884e-07
4.88224e-06
-1.65156e-06
8.66119e-06
-2.66881e-06
1.06209e-05
-3.49561e-06
1.16684e-05
-4.07515e-06
1.16091e-05
-4.41525e-06
1.05103e-05
-4.57289e-06
8.74561e-06
-4.62634e-06
6.70522e-06
-4.64947e-06
4.64519e-06
-4.68838e-06
2.66728e-06
-4.75482e-06
7.6113e-07
-4.85643e-06
-1.13089e-06
-5.00449e-06
-3.0491e-06
-5.2293e-06
-5.01996e-06
-5.58663e-06
-7.10752e-06
-6.08652e-06
-9.49976e-06
-6.50148e-06
-1.25008e-05
-6.08492e-06
-1.59501e-05
-3.89224e-06
-1.73517e-05
-9.86661e-06
-2.25102e-07
5.10734e-06
-8.72919e-07
9.309e-06
-1.53399e-06
1.1282e-05
-2.0552e-06
1.21896e-05
-2.40756e-06
1.19615e-05
-2.61408e-06
1.07168e-05
-2.72227e-06
8.85379e-06
-2.78549e-06
6.76845e-06
-2.84958e-06
4.70928e-06
-2.93765e-06
2.75535e-06
-3.05265e-06
8.76131e-07
-3.19471e-06
-9.88828e-07
-3.36506e-06
-2.87876e-06
-3.57793e-06
-4.80709e-06
-3.88771e-06
-6.79773e-06
-4.37651e-06
-9.01097e-06
-4.98375e-06
-1.18936e-05
-5.09711e-06
-1.58368e-05
-3.54016e-06
-1.89086e-05
-1.34068e-05
1.61328e-07
4.94601e-06
-6.64522e-08
9.53679e-06
-3.93809e-07
1.16093e-05
-6.40349e-07
1.24361e-05
-7.91092e-07
1.21122e-05
-8.76653e-07
1.08024e-05
-9.36642e-07
8.91378e-06
-1.00325e-06
6.83505e-06
-1.09329e-06
4.79932e-06
-1.21415e-06
2.87621e-06
-1.36752e-06
1.0295e-06
-1.55536e-06
-8.00991e-07
-1.77701e-06
-2.65711e-06
-2.03239e-06
-4.55172e-06
-2.35248e-06
-6.47764e-06
-2.83428e-06
-8.52918e-06
-3.53716e-06
-1.11907e-05
-4.01323e-06
-1.53607e-05
-3.01759e-06
-1.99043e-05
-1.64244e-05
4.89822e-07
4.45619e-06
6.84693e-07
9.34191e-06
7.2748e-07
1.15666e-05
7.63604e-07
1.24e-05
8.09713e-07
1.20661e-05
8.39556e-07
1.07725e-05
8.32472e-07
8.92086e-06
7.80012e-07
6.88751e-06
6.8459e-07
4.89475e-06
5.4905e-07
3.01175e-06
3.69778e-07
1.20877e-06
1.40841e-07
-5.72054e-07
-1.40568e-07
-2.3757e-06
-4.81123e-07
-4.21116e-06
-8.8833e-07
-6.07043e-06
-1.41251e-06
-8.005e-06
-2.20134e-06
-1.04019e-05
-2.95751e-06
-1.46045e-05
-2.46296e-06
-2.03988e-05
-1.88873e-05
7.3731e-07
3.71888e-06
1.3242e-06
8.75502e-06
1.71117e-06
1.11796e-05
2.03735e-06
1.20738e-05
2.30905e-06
1.17944e-05
2.49403e-06
1.05876e-05
2.58242e-06
8.83247e-06
2.58494e-06
6.88499e-06
2.51709e-06
4.9626e-06
2.38827e-06
3.14057e-06
2.19317e-06
1.40387e-06
1.91825e-06
-2.97138e-07
1.56209e-06
-2.01954e-06
1.11938e-06
-3.76845e-06
5.83995e-07
-5.53505e-06
-9.97494e-08
-7.32126e-06
-9.74655e-07
-9.52699e-06
-1.9386e-06
-1.36406e-05
-1.93442e-06
-2.0403e-05
-2.08217e-05
8.47068e-07
2.87181e-06
1.76773e-06
7.83436e-06
2.49769e-06
1.04496e-05
3.13097e-06
1.14405e-05
3.67355e-06
1.12518e-05
4.08017e-06
1.01809e-05
4.33306e-06
8.57958e-06
4.44594e-06
6.77211e-06
4.44337e-06
4.96518e-06
4.34259e-06
3.24134e-06
4.14322e-06
1.60324e-06
3.81994e-06
2.61448e-08
3.38267e-06
-1.58226e-06
2.8111e-06
-3.19688e-06
2.10398e-06
-4.82793e-06
1.27609e-06
-6.49336e-06
2.32477e-07
-8.48337e-06
-9.8812e-07
-1.242e-05
-1.4414e-06
-1.99497e-05
-2.22631e-05
7.82988e-07
2.08882e-06
1.90452e-06
6.71283e-06
2.92913e-06
9.42502e-06
3.8899e-06
1.04797e-05
4.75775e-06
1.0384e-05
5.46496e-06
9.47373e-06
5.97061e-06
8.07393e-06
6.27708e-06
6.46564e-06
6.40657e-06
4.83568e-06
6.3795e-06
3.26842e-06
6.19707e-06
1.78567e-06
5.85257e-06
3.70647e-07
5.32165e-06
-1.05134e-06
4.60601e-06
-2.48125e-06
3.6979e-06
-3.91982e-06
2.62518e-06
-5.42064e-06
1.34149e-06
-7.19969e-06
-1.81365e-07
-1.08971e-05
-9.33131e-07
-1.9198e-05
-2.31963e-05
5.59573e-07
1.52925e-06
1.71129e-06
5.56111e-06
3.02487e-06
8.11144e-06
4.35559e-06
9.14902e-06
5.6062e-06
9.13336e-06
6.67708e-06
8.40285e-06
7.50123e-06
7.24978e-06
8.06504e-06
5.90183e-06
8.3815e-06
4.51923e-06
8.46918e-06
3.18073e-06
8.33594e-06
1.91892e-06
7.98064e-06
7.25944e-07
7.36068e-06
-4.31386e-07
6.49241e-06
-1.61298e-06
5.36306e-06
-2.79047e-06
4.01432e-06
-4.07189e-06
2.50929e-06
-5.69467e-06
9.1006e-07
-9.29788e-06
-1.66313e-07
-1.81216e-05
-2.33626e-05
1.41628e-07
1.38762e-06
1.00046e-06
4.70227e-06
2.44878e-06
6.66313e-06
4.14377e-06
7.45402e-06
5.84315e-06
7.43397e-06
7.35994e-06
6.88607e-06
8.59011e-06
6.01961e-06
9.5031e-06
4.98884e-06
1.00938e-05
3.92851e-06
1.03754e-05
2.89916e-06
1.03542e-05
1.94007e-06
1.00372e-05
1.04296e-06
9.38521e-06
2.20608e-07
8.41052e-06
-6.3828e-07
7.1107e-06
-1.49065e-06
5.53529e-06
-2.49649e-06
3.84078e-06
-4.00015e-06
2.19823e-06
-7.65533e-06
6.36691e-07
-1.65601e-05
-2.27259e-05
-5.09882e-07
1.89751e-06
1.84792e-07
4.0076e-06
1.70533e-06
5.14259e-06
3.73237e-06
5.42697e-06
5.85535e-06
5.31099e-06
7.79065e-06
4.95077e-06
9.40059e-06
4.40967e-06
1.06435e-05
3.74593e-06
1.15011e-05
3.07094e-06
1.1991e-05
2.40926e-06
1.21181e-05
1.81295e-06
1.19035e-05
1.25757e-06
1.13668e-05
7.57276e-07
1.04868e-05
2.41755e-07
9.26775e-06
-2.71608e-07
7.77571e-06
-1.00444e-06
6.1968e-06
-2.42125e-06
4.41866e-06
-5.87719e-06
2.03978e-06
-1.41812e-05
-2.06861e-05
-4.1715e-06
6.069e-06
-3.6395e-06
3.4756e-06
-1.2686e-06
2.77169e-06
1.49787e-06
2.6605e-06
4.20526e-06
2.60359e-06
6.71083e-06
2.4452e-06
8.9039e-06
2.2166e-06
1.07249e-05
1.9249e-06
1.21562e-05
1.63966e-06
1.32245e-05
1.341e-06
1.39469e-05
1.09052e-06
1.43677e-05
8.36764e-07
1.44766e-05
6.48328e-07
1.42859e-05
4.32519e-07
1.37822e-05
2.32067e-07
1.29802e-05
-2.02435e-07
1.1874e-05
-1.31503e-06
1.00926e-05
-4.09582e-06
5.62978e-06
-9.71835e-06
-1.50563e-05
6.06901e-06
9.54461e-06
1.23163e-05
1.49768e-05
1.75804e-05
2.00256e-05
2.22422e-05
2.41671e-05
2.58068e-05
2.71478e-05
2.82383e-05
2.9075e-05
2.97234e-05
3.01559e-05
3.0388e-05
3.01855e-05
2.88705e-05
2.47747e-05
1.50563e-05
)
;

boundaryField
{
    movingWall
    {
        type            calculated;
        value           uniform 0;
    }
    fixedWalls
    {
        type            calculated;
        value           uniform 0;
    }
    frontAndBack
    {
        type            empty;
        value           nonuniform List<scalar> 0();
    }
}


// ************************************************************************* //
