/*--------------------------------*- C++ -*----------------------------------*\
| =========                 |                                                 |
| \\      /  F ield         | OpenFOAM: The Open Source CFD Toolbox           |
|  \\    /   O peration     | Version:  2212                                  |
|   \\  /    A nd           | Website:  www.openfoam.com                      |
|    \\/     M anipulation  |                                                 |
\*---------------------------------------------------------------------------*/
FoamFile
{
    version     2.0;
    format      ascii;
    arch        "LSB;label=32;scalar=64";
    class       volScalarField;
    location    "2.13";
    object      p;
}
// * * * * * * * * * * * * * * * * * * * * * * * * * * * * * * * * * * * * * //

dimensions      [0 2 -2 0 0 0 0];

internalField   nonuniform List<scalar> 
400
(
2.20341e-06
-0.00582623
-0.0129644
-0.0184169
-0.0204346
-0.0182411
-0.0117766
-0.00148631
0.0118349
0.0271468
0.0432422
0.0588209
0.0725766
0.0833065
0.0900509
0.0922651
0.0900239
0.0842419
0.0768786
0.0710651
0.00577983
-0.000219588
-0.00580565
-0.00954449
-0.0106011
-0.00843506
-0.00297242
0.0054716
0.0163004
0.0287093
0.0417475
0.0543838
0.0655844
0.0744079
0.0801183
0.0823137
0.0810752
0.0770527
0.071272
0.0653157
0.0133338
0.00503216
-0.000997043
-0.00442503
-0.00527502
-0.00326619
0.00159994
0.00902507
0.0184995
0.0293468
0.0407631
0.0518674
0.0617664
0.0696343
0.074805
0.076876
0.0758395
0.0720837
0.0658032
0.0575332
0.0201381
0.00869438
0.00122408
-0.00267046
-0.00372419
-0.00188751
0.00272893
0.0097821
0.0187778
0.0290925
0.0399895
0.0506517
0.0602307
0.0679138
0.0730011
0.0749993
0.0737636
0.0694538
0.0616006
0.0501001
0.0245007
0.00977153
0.000587993
-0.00398885
-0.00530429
-0.00350949
0.00117247
0.00833217
0.0174595
0.0279465
0.0390825
0.0500675
0.0600465
0.0681628
0.0736242
0.0757955
0.0743667
0.0692874
0.0595231
0.0445346
0.0251765
0.00714846
-0.00380378
-0.00905912
-0.0105142
-0.0085021
-0.00335901
0.00442713
0.0143109
0.0256765
0.0378113
0.0499008
0.0610457
0.0703008
0.0767323
0.0795146
0.0781366
0.0723311
0.0605368
0.0418874
0.021092
-0.000263983
-0.0129363
-0.0187112
-0.0200318
-0.017416
-0.0113205
-0.00232191
0.00898813
0.0219738
0.0359072
0.0499419
0.0631097
0.0743428
0.0825195
0.0865671
0.0857184
0.0794447
0.0656179
0.0430691
0.0111411
-0.0136199
-0.0278768
-0.0338561
-0.0346055
-0.0308596
-0.023215
-0.0123474
0.00110264
0.0164816
0.0330502
0.0499312
0.0660809
0.0802875
0.0911983
0.0974277
0.0978679
0.0916337
0.0758939
0.049114
-0.00596901
-0.0342683
-0.0498719
-0.0555505
-0.0550921
-0.0495166
-0.0395956
-0.0261155
-0.00975928
0.00882079
0.0288987
0.0495912
0.0697952
0.0881522
0.103045
0.112699
0.115548
0.11019
0.0928319
0.0614091
-0.0318591
-0.0638781
-0.0804188
-0.0850091
-0.082422
-0.0740803
-0.060983
-0.0440387
-0.0239537
-0.00133907
0.0231434
0.0486588
0.0740934
0.09797
0.118394
0.133123
0.139986
0.136816
0.118439
0.0819316
-0.0686694
-0.104605
-0.121346
-0.123592
-0.117517
-0.105129
-0.0877202
-0.0663276
-0.0416391
-0.0141577
0.0156034
0.0469511
0.0788536
0.109791
0.137622
0.159583
0.172725
0.173776
0.155518
0.113569
-0.119404
-0.159359
-0.174917
-0.172759
-0.16115
-0.142931
-0.119761
-0.0927789
-0.0625794
-0.0294497
0.00637109
0.0444715
0.0840531
0.123701
0.161134
0.193084
0.215666
0.224075
0.208049
0.160631
-0.18863
-0.232244
-0.24394
-0.23395
-0.213696
-0.187156
-0.156374
-0.122503
-0.0858996
-0.0464739
-0.00401627
0.041537
0.0898403
0.139828
0.189317
0.234688
0.271073
0.291663
0.281741
0.229774
-0.283976
-0.329306
-0.331833
-0.308281
-0.27471
-0.236441
-0.195766
-0.153611
-0.109841
-0.0637466
-0.0144393
0.038862
0.0965528
0.158275
0.222373
0.285287
0.341396
0.381574
0.384913
0.331833
-0.41932
-0.459672
-0.442351
-0.395793
-0.34213
-0.28774
-0.234617
-0.182931
-0.13161
-0.0789858
-0.0232149
0.0374744
0.104552
0.178837
0.25986
0.344969
0.428615
0.499699
0.529674
0.48539
-0.620532
-0.636744
-0.578677
-0.494193
-0.411241
-0.335659
-0.267781
-0.205978
-0.147537
-0.0893833
-0.0284264
0.0383479
0.113806
0.200471
0.299975
0.412025
0.533029
0.651775
0.732771
0.722395
-0.935924
-0.878515
-0.741741
-0.597948
-0.474393
-0.372659
-0.288868
-0.217763
-0.153953
-0.0924638
-0.0287173
0.0416957
0.123263
0.220718
0.338926
0.482155
0.651997
0.841342
1.01527
1.0975
-1.47642
-1.20663
-0.920503
-0.691387
-0.517304
-0.387543
-0.290061
-0.213337
-0.148124
-0.0872153
-0.0245774
0.0454577
0.128938
0.233071
0.367103
0.542678
0.771293
1.05932
1.40329
1.73014
-2.53965
-1.63055
-1.04444
-0.710958
-0.49575
-0.352093
-0.25453
-0.183583
-0.126169
-0.0735948
-0.0192688
0.042787
0.119212
0.218783
0.354812
0.547984
0.826393
1.23658
1.91168
2.92419
-4.36666
-2.04463
-0.973542
-0.56318
-0.357846
-0.240146
-0.170119
-0.123782
-0.0874809
-0.05351
-0.0166543
0.0276608
0.0846075
0.16173
0.272411
0.442099
0.718219
1.22571
2.41103
4.84853
)
;

boundaryField
{
    movingWall
    {
        type            zeroGradient;
    }
    fixedWalls
    {
        type            zeroGradient;
    }
    frontAndBack
    {
        type            empty;
    }
}


// ************************************************************************* //
