/*--------------------------------*- C++ -*----------------------------------*\
| =========                 |                                                 |
| \\      /  F ield         | OpenFOAM: The Open Source CFD Toolbox           |
|  \\    /   O peration     | Version:  2212                                  |
|   \\  /    A nd           | Website:  www.openfoam.com                      |
|    \\/     M anipulation  |                                                 |
\*---------------------------------------------------------------------------*/
FoamFile
{
    version     2.0;
    format      ascii;
    arch        "LSB;label=32;scalar=64";
    class       volVectorField;
    location    "0.56";
    object      U;
}
// * * * * * * * * * * * * * * * * * * * * * * * * * * * * * * * * * * * * * //

dimensions      [0 1 -1 0 0 0 0];

internalField   nonuniform List<vector> 
400
(
(0.00025341 -0.000250457 0)
(0.000141212 0.000111426 0)
(-0.00117705 0.000564628 0)
(-0.00348131 0.000885025 0)
(-0.00637785 0.00104576 0)
(-0.00947003 0.0010618 0)
(-0.0124037 0.000957896 0)
(-0.0148859 0.000760479 0)
(-0.0166906 0.000494672 0)
(-0.0176594 0.000184571 0)
(-0.0177033 -0.00014528 0)
(-0.0168061 -0.000468399 0)
(-0.015031 -0.000755464 0)
(-0.0125259 -0.000974324 0)
(-0.00952695 -0.00109125 0)
(-0.00635533 -0.00107407 0)
(-0.00340081 -0.000898166 0)
(-0.00108647 -0.000556413 0)
(0.00019645 -9.03642e-05 0)
(0.000267879 0.000262403 0)
(-7.74732e-05 -0.000169395 0)
(-0.00161167 0.00164492 0)
(-0.0056933 0.00361753 0)
(-0.0117197 0.00503516 0)
(-0.0188937 0.00574362 0)
(-0.0264028 0.00576061 0)
(-0.0334717 0.00517204 0)
(-0.0394299 0.00409281 0)
(-0.0437474 0.00264782 0)
(-0.0460507 0.000966987 0)
(-0.046133 -0.000813302 0)
(-0.0439647 -0.00254729 0)
(-0.0397042 -0.00407897 0)
(-0.0337052 -0.00524551 0)
(-0.0265153 -0.005887 0)
(-0.0188559 -0.00586527 0)
(-0.0115674 -0.0050951 0)
(-0.00551365 -0.00358964 0)
(-0.00149317 -0.00155922 0)
(-4.25776e-05 0.000227486 0)
(-0.000528649 0.00109169 0)
(-0.00371168 0.0057367 0)
(-0.0105898 0.0102252 0)
(-0.0199933 0.0134087 0)
(-0.0307673 0.0149474 0)
(-0.0418256 0.0148399 0)
(-0.0521241 0.0132567 0)
(-0.0607492 0.010457 0)
(-0.066975 0.00674248 0)
(-0.0702885 0.002439 0)
(-0.0704064 -0.00210677 0)
(-0.0672898 -0.00652604 0)
(-0.0611572 -0.0104301 0)
(-0.0524926 -0.0134221 0)
(-0.0420403 -0.0151247 0)
(-0.0307762 -0.0152268 0)
(-0.0198305 -0.013557 0)
(-0.0103643 -0.0101796 0)
(-0.00354876 -0.00555141 0)
(-0.000476877 -0.000948873 0)
(-0.000928298 0.0034801 0)
(-0.00569194 0.0122216 0)
(-0.015303 0.0199232 0)
(-0.027919 0.0251997 0)
(-0.0419888 0.0275991 0)
(-0.0561835 0.0271395 0)
(-0.0692576 0.0241107 0)
(-0.0801321 0.0189553 0)
(-0.0879552 0.0121964 0)
(-0.0921261 0.00440529 0)
(-0.0923107 -0.0038084 0)
(-0.088457 -0.0117976 0)
(-0.0808111 -0.0188837 0)
(-0.0699282 -0.0243782 0)
(-0.0566734 -0.0276297 0)
(-0.0421978 -0.0281038 0)
(-0.0278585 -0.0254994 0)
(-0.0150947 -0.019893 0)
(-0.00550541 -0.0119284 0)
(-0.00086166 -0.00322505 0)
(-0.00127902 0.0068783 0)
(-0.00753659 0.0209552 0)
(-0.0198062 0.0325127 0)
(-0.0355375 0.0401061 0)
(-0.0527473 0.0432934 0)
(-0.0698637 0.0421958 0)
(-0.0854697 0.0372802 0)
(-0.0983678 0.029215 0)
(-0.107628 0.0187784 0)
(-0.112597 0.00681401 0)
(-0.112905 -0.00578103 0)
(-0.108482 -0.0180562 0)
(-0.0995691 -0.0290136 0)
(-0.0867451 -0.0376355 0)
(-0.0709404 -0.042948 0)
(-0.0534337 -0.0441318 0)
(-0.0357869 -0.0406813 0)
(-0.0197364 -0.0325945 0)
(-0.00737104 -0.0205918 0)
(-0.00120375 -0.00649852 0)
(-0.00160762 0.0112164 0)
(-0.00931858 0.0318766 0)
(-0.0242107 0.0479549 0)
(-0.0430052 0.0580756 0)
(-0.0632607 0.061941 0)
(-0.0831578 0.0598849 0)
(-0.10113 0.0526315 0)
(-0.115899 0.0411282 0)
(-0.126495 0.0264385 0)
(-0.132245 0.0096932 0)
(-0.132757 -0.00791715 0)
(-0.12793 -0.025134 0)
(-0.117973 -0.0406277 0)
(-0.103439 -0.0530227 0)
(-0.0852732 -0.0609698 0)
(-0.0648387 -0.0632836 0)
(-0.0438875 -0.0591451 0)
(-0.0244788 -0.0483468 0)
(-0.00925474 -0.0315591 0)
(-0.00153782 -0.0107291 0)
(-0.00194014 0.016478 0)
(-0.0111217 0.0449766 0)
(-0.0286515 0.0662368 0)
(-0.0504818 0.0790635 0)
(-0.0736878 0.0834506 0)
(-0.0962075 0.0800782 0)
(-0.116356 0.0700279 0)
(-0.13282 0.0545875 0)
(-0.144637 0.0351332 0)
(-0.151147 0.013085 0)
(-0.151955 -0.0100875 0)
(-0.146921 -0.0328347 0)
(-0.136186 -0.0535027 0)
(-0.120227 -0.0703405 0)
(-0.0999359 -0.0815693 0)
(-0.0767038 -0.0855367 0)
(-0.0524418 -0.0809673 0)
(-0.0295457 -0.0672798 0)
(-0.0112839 -0.0449414 0)
(-0.00190014 -0.0159522 0)
(-0.00230009 0.0226959 0)
(-0.0130253 0.0603034 0)
(-0.0332515 0.0873672 0)
(-0.0580809 0.103001 0)
(-0.0840764 0.10767 0)
(-0.108956 0.102566 0)
(-0.13097 0.0892478 0)
(-0.148838 0.0694135 0)
(-0.16167 0.0447732 0)
(-0.168871 0.0170201 0)
(-0.170066 -0.0121346 0)
(-0.165075 -0.0408954 0)
(-0.153933 -0.0673175 0)
(-0.136972 -0.0892771 0)
(-0.114945 -0.104516 0)
(-0.0891774 -0.110801 0)
(-0.0616717 -0.106216 0)
(-0.0351489 -0.0895825 0)
(-0.0135861 -0.0609515 0)
(-0.00232637 -0.0222783 0)
(-0.00271166 0.029948 0)
(-0.0151081 0.077959 0)
(-0.038115 0.111359 0)
(-0.0658488 0.129754 0)
(-0.0943275 0.134321 0)
(-0.1211 0.126978 0)
(-0.144445 0.109905 0)
(-0.163214 0.0852843 0)
(-0.176688 0.0551686 0)
(-0.184408 0.0214872 0)
(-0.186059 -0.0138757 0)
(-0.181423 -0.0489588 0)
(-0.170396 -0.0815965 0)
(-0.153082 -0.109327 0)
(-0.129972 -0.129385 0)
(-0.102186 -0.138832 0)
(-0.0716899 -0.134891 0)
(-0.0414672 -0.115472 0)
(-0.0162881 -0.0798973 0)
(-0.00285471 -0.0298903 0)
(-0.00320765 0.0383604 0)
(-0.0174662 0.0980915 0)
(-0.043341 0.138192 0)
(-0.0737566 0.159049 0)
(-0.10416 0.162905 0)
(-0.132032 0.152677 0)
(-0.155826 0.131345 0)
(-0.174679 0.101643 0)
(-0.188168 0.0659591 0)
(-0.196068 0.0263899 0)
(-0.198186 -0.0151136 0)
(-0.194284 -0.0565474 0)
(-0.184082 -0.095645 0)
(-0.167367 -0.129693 0)
(-0.144216 -0.155428 0)
(-0.115339 -0.169101 0)
(-0.0824459 -0.166806 0)
(-0.0486362 -0.145127 0)
(-0.0195288 -0.102162 0)
(-0.00353357 -0.0390479 0)
(-0.00384393 0.0481294 0)
(-0.0202461 0.120895 0)
(-0.0490464 0.167755 0)
(-0.081686 0.19037 0)
(-0.113053 0.192561 0)
(-0.140746 0.178618 0)
(-0.163621 0.152515 0)
(-0.181309 0.117595 0)
(-0.193846 0.0765364 0)
(-0.20136 0.0314947 0)
(-0.203856 -0.0156596 0)
(-0.201109 -0.0630523 0)
(-0.192648 -0.108494 0)
(-0.177857 -0.149174 0)
(-0.156224 -0.181419 0)
(-0.127779 -0.20061 0)
(-0.0936441 -0.201428 0)
(-0.056733 -0.178576 0)
(-0.0234798 -0.128175 0)
(-0.00443554 -0.0501051 0)
(-0.00472533 0.0595718 0)
(-0.0236945 0.146619 0)
(-0.0553825 0.199759 0)
(-0.0893757 0.222794 0)
(-0.120121 0.221895 0)
(-0.145675 0.203191 0)
(-0.165629 0.171843 0)
(-0.18037 0.131813 0)
(-0.19058 0.0859714 0)
(-0.196862 0.0363769 0)
(-0.1995 -0.0153712 0)
(-0.198335 -0.0677447 0)
(-0.192716 -0.118869 0)
(-0.181573 -0.166081 0)
(-0.163644 -0.205492 0)
(-0.137966 -0.231664 0)
(-0.104595 -0.237628 0)
(-0.0657333 -0.215527 0)
(-0.0283776 -0.158369 0)
(-0.00568207 -0.0635528 0)
(-0.00605153 0.0732288 0)
(-0.0282256 0.175565 0)
(-0.0625081 0.233573 0)
(-0.096256 0.254749 0)
(-0.123855 0.248734 0)
(-0.144396 0.224029 0)
(-0.158668 0.18711 0)
(-0.168105 0.142464 0)
(-0.174199 0.0929703 0)
(-0.178116 0.0403796 0)
(-0.180482 -0.014199 0)
(-0.181264 -0.0698226 0)
(-0.179693 -0.125213 0)
(-0.174269 -0.178183 0)
(-0.162893 -0.224976 0)
(-0.143315 -0.259591 0)
(-0.113937 -0.273332 0)
(-0.0753927 -0.255069 0)
(-0.0345561 -0.193092 0)
(-0.00748626 -0.0801047 0)
(-0.008192 0.0900466 0)
(-0.0344824 0.208021 0)
(-0.0704114 0.267885 0)
(-0.101022 0.283609 0)
(-0.121572 0.269814 0)
(-0.133105 0.237843 0)
(-0.13816 0.195407 0)
(-0.139459 0.147235 0)
(-0.139364 0.0959105 0)
(-0.139591 0.04262 0)
(-0.141106 -0.0122334 0)
(-0.144052 -0.0685083 0)
(-0.147666 -0.125796 0)
(-0.150167 -0.182772 0)
(-0.148718 -0.236327 0)
(-0.139642 -0.280449 0)
(-0.119094 -0.305028 0)
(-0.0849354 -0.29516 0)
(-0.0424403 -0.232378 0)
(-0.010216 -0.100837 0)
(-0.0117674 0.111636 0)
(-0.0432594 0.243962 0)
(-0.0782963 0.300035 0)
(-0.100626 0.305094 0)
(-0.108349 0.280462 0)
(-0.105728 0.240385 0)
(-0.0975251 0.193283 0)
(-0.087766 0.143551 0)
(-0.0794957 0.0930369 0)
(-0.0747798 0.0420954 0)
(-0.0747975 -0.00972911 0)
(-0.0798856 -0.0632121 0)
(-0.0894582 -0.118992 0)
(-0.101784 -0.176959 0)
(-0.113683 -0.235287 0)
(-0.120303 -0.288884 0)
(-0.115262 -0.327198 0)
(-0.0922657 -0.331796 0)
(-0.0523154 -0.275404 0)
(-0.0144303 -0.127347 0)
(-0.0175493 0.140659 0)
(-0.0547642 0.282146 0)
(-0.0827853 0.324719 0)
(-0.0880787 0.312475 0)
(-0.0751058 0.274458 0)
(-0.0525874 0.226772 0)
(-0.027454 0.17729 0)
(-0.00450945 0.129136 0)
(0.0131044 0.0829136 0)
(0.0234458 0.0379472 0)
(0.0254044 -0.00707375 0)
(0.018513 -0.0537593 0)
(0.0029849 -0.103753 0)
(-0.0199925 -0.158322 0)
(-0.0476823 -0.217504 0)
(-0.0749821 -0.278362 0)
(-0.0935449 -0.331792 0)
(-0.0920628 -0.357684 0)
(-0.0632802 -0.319295 0)
(-0.0206335 -0.161974 0)
(-0.0254497 0.181711 0)
(-0.0657743 0.317771 0)
(-0.0733322 0.331363 0)
(-0.0480755 0.295402 0)
(-0.0055759 0.244213 0)
(0.0412217 0.192382 0)
(0.0846571 0.145048 0)
(0.120541 0.102973 0)
(0.146707 0.0651384 0)
(0.162053 0.0298916 0)
(0.165947 -0.00467176 0)
(0.157941 -0.040629 0)
(0.137737 -0.0802474 0)
(0.105444 -0.125919 0)
(0.0622654 -0.179728 0)
(0.0118081 -0.242022 0)
(-0.0378284 -0.307879 0)
(-0.0716785 -0.360144 0)
(-0.0700552 -0.356609 0)
(-0.0279122 -0.208375 0)
(-0.029649 0.239176 0)
(-0.0608411 0.335768 0)
(-0.0219419 0.300503 0)
(0.0505429 0.240128 0)
(0.127574 0.18295 0)
(0.19701 0.13539 0)
(0.25434 0.0973997 0)
(0.298254 0.0668516 0)
(0.328828 0.0413557 0)
(0.346471 0.0187787 0)
(0.35138 -0.00279429 0)
(0.343306 -0.0252655 0)
(0.321472 -0.0507882 0)
(0.284645 -0.0820487 0)
(0.231574 -0.122447 0)
(0.162183 -0.17567 0)
(0.0799017 -0.243432 0)
(-0.00318927 -0.319136 0)
(-0.0546693 -0.368612 0)
(-0.0284593 -0.267618 0)
(0.00808309 0.281861 0)
(0.0197831 0.294972 0)
(0.139066 0.210973 0)
(0.26446 0.143477 0)
(0.364368 0.0971862 0)
(0.440365 0.0657777 0)
(0.496745 0.0442377 0)
(0.536876 0.0288862 0)
(0.563449 0.017199 0)
(0.578308 0.00748481 0)
(0.582383 -0.00149419 0)
(0.575698 -0.0108454 0)
(0.55731 -0.0218473 0)
(0.525136 -0.0363352 0)
(0.475778 -0.0572598 0)
(0.404538 -0.0893843 0)
(0.305177 -0.139741 0)
(0.173417 -0.216386 0)
(0.0411721 -0.311655 0)
(0.0184302 -0.299995 0)
(0.299604 0.146091 0)
(0.396272 0.127503 0)
(0.55742 0.0760895 0)
(0.674487 0.0437233 0)
(0.743889 0.0255721 0)
(0.787154 0.0152422 0)
(0.815486 0.00921238 0)
(0.833956 0.00550945 0)
(0.845386 0.0030272 0)
(0.851372 0.00114935 0)
(0.852667 -0.000499402 0)
(0.849383 -0.0022151 0)
(0.841 -0.0043386 0)
(0.826141 -0.00742412 0)
(0.802078 -0.0125323 0)
(0.763621 -0.0217729 0)
(0.699108 -0.0392829 0)
(0.583952 -0.0726601 0)
(0.415827 -0.127868 0)
(0.308819 -0.149468 0)
)
;

boundaryField
{
    movingWall
    {
        type            fixedValue;
        value           uniform (1 0 0);
    }
    fixedWalls
    {
        type            noSlip;
    }
    frontAndBack
    {
        type            empty;
    }
}


// ************************************************************************* //
