/*--------------------------------*- C++ -*----------------------------------*\
| =========                 |                                                 |
| \\      /  F ield         | OpenFOAM: The Open Source CFD Toolbox           |
|  \\    /   O peration     | Version:  2212                                  |
|   \\  /    A nd           | Website:  www.openfoam.com                      |
|    \\/     M anipulation  |                                                 |
\*---------------------------------------------------------------------------*/
FoamFile
{
    version     2.0;
    format      ascii;
    arch        "LSB;label=32;scalar=64";
    class       volScalarField;
    location    "3.89";
    object      p;
}
// * * * * * * * * * * * * * * * * * * * * * * * * * * * * * * * * * * * * * //

dimensions      [0 2 -2 0 0 0 0];

internalField   nonuniform List<scalar> 
400
(
1.09233e-06
-0.00582814
-0.0129665
-0.018419
-0.0204367
-0.0182431
-0.0117786
-0.00148844
0.0118327
0.0271446
0.04324
0.0588188
0.0725746
0.0833045
0.0900488
0.0922629
0.0900217
0.0842397
0.0768764
0.0710629
0.00577796
-0.000221602
-0.00580774
-0.00954661
-0.0106032
-0.00843712
-0.00297444
0.00546957
0.0162983
0.0287071
0.0417453
0.0543816
0.0655822
0.0744059
0.0801162
0.0823117
0.0810731
0.0770506
0.0712698
0.0653135
0.0133318
0.00503013
-0.000999119
-0.00442717
-0.00527718
-0.00326831
0.00159789
0.00902307
0.0184975
0.0293447
0.0407609
0.0518652
0.0617642
0.0696322
0.0748029
0.076874
0.0758375
0.0720816
0.0658011
0.057531
0.020136
0.00869236
0.00122205
-0.00267257
-0.00372636
-0.0018897
0.0027268
0.00978006
0.0187759
0.0290905
0.0399874
0.0506495
0.0602285
0.0679116
0.0729989
0.0749973
0.0737616
0.0694518
0.0615985
0.050098
0.0244985
0.00976948
0.000585985
-0.00399089
-0.00530641
-0.0035117
0.00117025
0.00833003
0.0174574
0.0279445
0.0390805
0.0500654
0.0600444
0.0681606
0.0736219
0.0757933
0.0743646
0.0692854
0.0595211
0.0445325
0.0251743
0.00714635
-0.00380581
-0.00906111
-0.0105162
-0.00850424
-0.00336124
0.0044249
0.0143088
0.0256745
0.0378093
0.0498988
0.0610436
0.0702986
0.0767301
0.0795124
0.0781344
0.072329
0.0605347
0.0418854
0.0210898
-0.000266149
-0.0129383
-0.0187132
-0.0200338
-0.0174181
-0.0113227
-0.00232415
0.0089859
0.0219716
0.0359051
0.0499399
0.0631077
0.0743408
0.0825174
0.0865649
0.0857162
0.0794425
0.0656158
0.0430671
0.011139
-0.0136221
-0.027879
-0.0338582
-0.0346075
-0.0308615
-0.023217
-0.0123495
0.00110039
0.0164794
0.033048
0.0499291
0.0660789
0.0802855
0.0911963
0.0974255
0.0978658
0.0916315
0.0758917
0.0491119
-0.00597107
-0.0342705
-0.0498741
-0.0555526
-0.0550941
-0.0495186
-0.0395976
-0.0261175
-0.00976144
0.00881856
0.0288965
0.049589
0.0697931
0.0881502
0.103043
0.112697
0.115546
0.110187
0.0928298
0.0614069
-0.0318611
-0.0638802
-0.0804211
-0.0850113
-0.0824242
-0.0740824
-0.0609849
-0.0440407
-0.0239557
-0.00134121
0.0231412
0.0486566
0.0740912
0.0979679
0.118392
0.133121
0.139984
0.136814
0.118436
0.0819294
-0.0686714
-0.104607
-0.121349
-0.123594
-0.11752
-0.105131
-0.0877223
-0.0663295
-0.0416411
-0.0141598
0.0156013
0.0469489
0.0788514
0.109789
0.13762
0.159581
0.172723
0.173774
0.155516
0.113567
-0.119406
-0.159361
-0.174919
-0.172761
-0.161152
-0.142933
-0.119763
-0.092781
-0.0625814
-0.0294517
0.00636907
0.0444694
0.084051
0.123699
0.161132
0.193082
0.215664
0.224073
0.208046
0.160628
-0.188632
-0.232246
-0.243942
-0.233952
-0.213698
-0.187158
-0.156376
-0.122505
-0.0859017
-0.046476
-0.00401827
0.041535
0.0898383
0.139825
0.189315
0.234685
0.271071
0.29166
0.281739
0.229772
-0.283978
-0.329308
-0.331835
-0.308283
-0.274712
-0.236443
-0.195768
-0.153614
-0.109844
-0.0637487
-0.0144414
0.03886
0.0965508
0.158273
0.222371
0.285284
0.341394
0.381571
0.384911
0.331831
-0.419322
-0.459674
-0.442354
-0.395795
-0.342132
-0.287742
-0.234619
-0.182933
-0.131612
-0.078988
-0.023217
0.0374723
0.10455
0.178835
0.259858
0.344967
0.428613
0.499697
0.529672
0.485388
-0.620535
-0.636746
-0.57868
-0.494195
-0.411243
-0.335661
-0.267783
-0.20598
-0.147539
-0.0893855
-0.0284286
0.0383458
0.113804
0.200469
0.299973
0.412023
0.533027
0.651772
0.732769
0.722393
-0.935926
-0.878517
-0.741744
-0.597951
-0.474395
-0.372661
-0.28887
-0.217765
-0.153955
-0.0924659
-0.0287194
0.0416936
0.123261
0.220716
0.338924
0.482153
0.651995
0.841339
1.01527
1.0975
-1.47643
-1.20663
-0.920505
-0.69139
-0.517307
-0.387546
-0.290063
-0.213339
-0.148126
-0.0872173
-0.0245795
0.0454556
0.128935
0.233069
0.367101
0.542676
0.771291
1.05932
1.40329
1.73014
-2.53965
-1.63055
-1.04444
-0.71096
-0.495752
-0.352095
-0.254532
-0.183585
-0.126171
-0.0735969
-0.0192709
0.042785
0.11921
0.218781
0.35481
0.547982
0.826391
1.23658
1.91168
2.92419
-4.36667
-2.04464
-0.973544
-0.563182
-0.357848
-0.240148
-0.170121
-0.123785
-0.087483
-0.0535121
-0.0166564
0.0276587
0.0846055
0.161728
0.272409
0.442097
0.718217
1.22571
2.41103
4.84853
)
;

boundaryField
{
    movingWall
    {
        type            zeroGradient;
    }
    fixedWalls
    {
        type            zeroGradient;
    }
    frontAndBack
    {
        type            empty;
    }
}


// ************************************************************************* //
