/*--------------------------------*- C++ -*----------------------------------*\
| =========                 |                                                 |
| \\      /  F ield         | OpenFOAM: The Open Source CFD Toolbox           |
|  \\    /   O peration     | Version:  2212                                  |
|   \\  /    A nd           | Website:  www.openfoam.com                      |
|    \\/     M anipulation  |                                                 |
\*---------------------------------------------------------------------------*/
FoamFile
{
    version     2.0;
    format      ascii;
    arch        "LSB;label=32;scalar=64";
    class       volVectorField;
    location    "0.34";
    object      U;
}
// * * * * * * * * * * * * * * * * * * * * * * * * * * * * * * * * * * * * * //

dimensions      [0 1 -1 0 0 0 0];

internalField   nonuniform List<vector> 
400
(
(-0.000142976 0.000134781 0)
(-0.000870496 0.000395069 0)
(-0.002124 0.000495997 0)
(-0.00346315 0.000517492 0)
(-0.00479458 0.000517649 0)
(-0.00609696 0.000511597 0)
(-0.00735122 0.000498595 0)
(-0.00853125 0.000473885 0)
(-0.00960025 0.000431541 0)
(-0.0105089 0.000365205 0)
(-0.011195 0.000268787 0)
(-0.0115855 0.000136966 0)
(-0.0115988 -3.42217e-05 0)
(-0.0111546 -0.000241004 0)
(-0.0101914 -0.000471859 0)
(-0.00868576 -0.000704452 0)
(-0.00668002 -0.000901121 0)
(-0.0043105 -0.000997784 0)
(-0.00189483 -0.000876365 0)
(-0.00036507 -0.000381935 0)
(-0.000433344 0.000889355 0)
(-0.00200631 0.00192383 0)
(-0.00442318 0.00230479 0)
(-0.00696821 0.00237729 0)
(-0.00947141 0.00234469 0)
(-0.0118817 0.00226674 0)
(-0.0141504 0.00214635 0)
(-0.0162231 0.00196989 0)
(-0.0180335 0.00171867 0)
(-0.0195002 0.00137227 0)
(-0.0205267 0.000911068 0)
(-0.0210054 0.000320033 0)
(-0.0208179 -0.000405534 0)
(-0.0198505 -0.00124896 0)
(-0.0180241 -0.00216451 0)
(-0.0153196 -0.00306531 0)
(-0.0118187 -0.00380721 0)
(-0.00774286 -0.00415273 0)
(-0.0035968 -0.00369256 0)
(-0.000796462 -0.00182926 0)
(-0.000567654 0.00225208 0)
(-0.00253514 0.00439537 0)
(-0.00547984 0.00514744 0)
(-0.00854736 0.00527225 0)
(-0.0115454 0.00516079 0)
(-0.0144176 0.00493505 0)
(-0.017107 0.00460768 0)
(-0.0195516 0.00415738 0)
(-0.0216785 0.00355189 0)
(-0.0233989 0.00275494 0)
(-0.0246067 0.00173134 0)
(-0.0251799 0.000454904 0)
(-0.0249805 -0.00107943 0)
(-0.0238696 -0.00284141 0)
(-0.021738 -0.00473985 0)
(-0.0185415 -0.00659954 0)
(-0.0143569 -0.00812492 0)
(-0.00943694 -0.00883284 0)
(-0.00439434 -0.00792107 0)
(-0.00097481 -0.00414144 0)
(-0.0006132 0.0037816 0)
(-0.00275126 0.00715269 0)
(-0.00594834 0.0082943 0)
(-0.00926534 0.00846226 0)
(-0.0125043 0.00825874 0)
(-0.0156148 0.00787206 0)
(-0.0185441 0.00732506 0)
(-0.0212344 0.00658879 0)
(-0.0236161 0.00561653 0)
(-0.0256013 0.00435361 0)
(-0.0270789 0.00274447 0)
(-0.0279122 0.000743552 0)
(-0.0279348 -0.00166716 0)
(-0.0269581 -0.0044578 0)
(-0.024805 -0.00749711 0)
(-0.0213614 -0.0105135 0)
(-0.0166584 -0.0130237 0)
(-0.0109694 -0.0142263 0)
(-0.0050538 -0.0128164 0)
(-0.00108744 -0.00676795 0)
(-0.000631361 0.00537983 0)
(-0.00286537 0.0100513 0)
(-0.00622484 0.0116004 0)
(-0.00971197 0.0118147 0)
(-0.0131276 0.011526 0)
(-0.0164319 0.0109934 0)
(-0.0195829 0.0102503 0)
(-0.0225338 0.00925988 0)
(-0.0252256 0.00795893 0)
(-0.0275766 0.00626907 0)
(-0.0294735 0.00410409 0)
(-0.030762 0.00138393 0)
(-0.0312394 -0.00194282 0)
(-0.03064 -0.00587738 0)
(-0.0286698 -0.0102675 0)
(-0.0250824 -0.0147419 0)
(-0.0198001 -0.0185733 0)
(-0.0130947 -0.0205085 0)
(-0.00594719 -0.0185461 0)
(-0.00122129 -0.00973915 0)
(-0.000645205 0.00702964 0)
(-0.00296348 0.0130736 0)
(-0.00647404 0.0150569 0)
(-0.0101258 0.0153303 0)
(-0.0137196 0.0149748 0)
(-0.0172296 0.014326 0)
(-0.0206296 0.0134306 0)
(-0.0238909 0.0122441 0)
(-0.0269728 0.0106849 0)
(-0.0298093 0.00864491 0)
(-0.0322929 0.00599455 0)
(-0.0342563 0.00259775 0)
(-0.0354635 -0.00166347 0)
(-0.0355486 -0.00687433 0)
(-0.03404 -0.0129038 0)
(-0.030468 -0.0193008 0)
(-0.0245238 -0.0250231 0)
(-0.0163861 -0.028142 0)
(-0.00732646 -0.0255873 0)
(-0.00140346 -0.0132262 0)
(-0.000660514 0.0087323 0)
(-0.00307087 0.016226 0)
(-0.006746 0.0186737 0)
(-0.0105757 0.0190221 0)
(-0.0143611 0.0186227 0)
(-0.0180937 0.0178966 0)
(-0.0217686 0.0169075 0)
(-0.0253833 0.0156062 0)
(-0.028927 0.0138931 0)
(-0.0323647 0.011626 0)
(-0.0356121 0.00861886 0)
(-0.0385073 0.0046471 0)
(-0.0408074 -0.000530553 0)
(-0.0420388 -0.00708126 0)
(-0.0414918 -0.0150815 0)
(-0.0383477 -0.0240568 0)
(-0.0318366 -0.0326052 0)
(-0.0217719 -0.0377869 0)
(-0.00966113 -0.0347276 0)
(-0.0016783 -0.0175084 0)
(-0.000678357 0.0104949 0)
(-0.00319299 0.0195235 0)
(-0.00705038 0.0224651 0)
(-0.0110696 0.0229016 0)
(-0.0150515 0.02248 0)
(-0.0190083 0.0217184 0)
(-0.0229626 0.0207045 0)
(-0.0269472 0.0193907 0)
(-0.0309968 0.0176647 0)
(-0.0351299 0.0153524 0)
(-0.0393232 0.0122045 0)
(-0.0434696 0.0078856 0)
(-0.047296 0.00199032 0)
(-0.050344 -0.00586236 0)
(-0.0517063 -0.0161188 0)
(-0.0499814 -0.0284898 0)
(-0.043567 -0.0413481 0)
(-0.031229 -0.050366 0)
(-0.014224 -0.0474081 0)
(-0.00223301 -0.0232223 0)
(-0.000699963 0.0123265 0)
(-0.00333328 0.0229837 0)
(-0.00738981 0.0264438 0)
(-0.011602 0.0269713 0)
(-0.0157688 0.0265406 0)
(-0.0199264 0.0257809 0)
(-0.0241302 0.0248144 0)
(-0.0284584 0.0236061 0)
(-0.0330067 0.0220443 0)
(-0.0378757 0.0199359 0)
(-0.0431464 0.0169781 0)
(-0.048826 0.0127226 0)
(-0.0547619 0.00654983 0)
(-0.0606598 -0.00234326 0)
(-0.0655126 -0.0146883 0)
(-0.0672962 -0.0311624 0)
(-0.0629207 -0.0504665 0)
(-0.0485928 -0.0667934 0)
(-0.024122 -0.066255 0)
(-0.00367333 -0.0320709 0)
(-0.000729297 0.0142399 0)
(-0.00350197 0.0266266 0)
(-0.00777569 0.0306175 0)
(-0.0121752 0.0312204 0)
(-0.0164951 0.0307754 0)
(-0.0207983 0.0300404 0)
(-0.0251773 0.0291852 0)
(-0.0297617 0.0282043 0)
(-0.0347226 0.0270092 0)
(-0.0402708 0.0254182 0)
(-0.0466485 0.0231123 0)
(-0.0540994 0.0195678 0)
(-0.0628079 0.0139732 0)
(-0.0727062 0.00514199 0)
(-0.0833756 -0.00846773 0)
(-0.0924269 -0.0290018 0)
(-0.093736 -0.057401 0)
(-0.0785253 -0.0871872 0)
(-0.0444183 -0.0953754 0)
(-0.00735301 -0.0477495 0)
(-0.000775627 0.016259 0)
(-0.00372341 0.0304809 0)
(-0.00823978 0.0349916 0)
(-0.0128135 0.035623 0)
(-0.0172328 0.0351278 0)
(-0.0215906 0.0344121 0)
(-0.026017 0.0337076 0)
(-0.0306938 0.0330583 0)
(-0.0358708 0.0324311 0)
(-0.0418845 0.0317075 0)
(-0.0491832 0.0306305 0)
(-0.058345 0.0287201 0)
(-0.070099 0.025161 0)
(-0.0853321 0.0185474 0)
(-0.104498 0.0059821 0)
(-0.124779 -0.0178322 0)
(-0.135005 -0.0590292 0)
(-0.119469 -0.112217 0)
(-0.0769734 -0.139919 0)
(-0.0148132 -0.0760316 0)
(-0.00085739 0.0184301 0)
(-0.00404567 0.0345955 0)
(-0.00884733 0.0395748 0)
(-0.0135775 0.0401388 0)
(-0.01802 0.0395121 0)
(-0.022304 0.0387665 0)
(-0.0265949 0.038206 0)
(-0.0311162 0.0379429 0)
(-0.0361802 0.0380366 0)
(-0.0422347 0.0385 0)
(-0.0499328 0.0392599 0)
(-0.0602185 0.0400817 0)
(-0.0744909 0.0404377 0)
(-0.094894 0.0388817 0)
(-0.123254 0.0304926 0)
(-0.154825 0.00311612 0)
(-0.171267 -0.058059 0)
(-0.154538 -0.146319 0)
(-0.111619 -0.202621 0)
(-0.0248911 -0.127049 0)
(-0.0010088 0.0208434 0)
(-0.0045549 0.039052 0)
(-0.00971497 0.0443781 0)
(-0.014581 0.0447094 0)
(-0.0189466 0.0438112 0)
(-0.0229933 0.0429297 0)
(-0.0269184 0.0424397 0)
(-0.0309624 0.0425294 0)
(-0.0354551 0.0433793 0)
(-0.0408882 0.0452029 0)
(-0.0480253 0.0482489 0)
(-0.0580103 0.0527522 0)
(-0.0725816 0.0586642 0)
(-0.0947098 0.0641234 0)
(-0.126966 0.0603112 0)
(-0.161822 0.0262766 0)
(-0.176238 -0.0602898 0)
(-0.1598 -0.186269 0)
(-0.129874 -0.277154 0)
(-0.0306583 -0.215943 0)
(-0.00129497 0.0236804 0)
(-0.0054047 0.0440362 0)
(-0.0110346 0.0494813 0)
(-0.0160035 0.0492913 0)
(-0.0201621 0.0478921 0)
(-0.0237811 0.0466982 0)
(-0.0270859 0.0461221 0)
(-0.0302961 0.0464067 0)
(-0.0336828 0.047851 0)
(-0.0376494 0.0508942 0)
(-0.0428427 0.0561711 0)
(-0.050202 0.0644507 0)
(-0.0610261 0.075943 0)
(-0.0779148 0.0874603 0)
(-0.103611 0.0859086 0)
(-0.130877 0.0451562 0)
(-0.13888 -0.0573471 0)
(-0.128139 -0.209054 0)
(-0.120851 -0.340504 0)
(-0.023385 -0.328028 0)
(-0.00182439 0.0271782 0)
(-0.00684571 0.0495705 0)
(-0.0131436 0.0546047 0)
(-0.0181605 0.0535805 0)
(-0.021911 0.051491 0)
(-0.0248716 0.0498131 0)
(-0.0273055 0.0489447 0)
(-0.0293597 0.0491408 0)
(-0.0311528 0.0507732 0)
(-0.0328372 0.0544485 0)
(-0.034664 0.0610922 0)
(-0.0369552 0.0718118 0)
(-0.0400238 0.0867299 0)
(-0.0452944 0.101329 0)
(-0.0557807 0.100543 0)
(-0.068149 0.0590822 0)
(-0.0716295 -0.0422658 0)
(-0.0702238 -0.200635 0)
(-0.0909167 -0.368525 0)
(-0.00530327 -0.414762 0)
(-0.00285463 0.0319086 0)
(-0.00930126 0.0570841 0)
(-0.0163697 0.0613471 0)
(-0.0212122 0.0583608 0)
(-0.0243217 0.0548278 0)
(-0.0264333 0.0522473 0)
(-0.0278274 0.0507479 0)
(-0.0285338 0.050428 0)
(-0.0284477 0.0516011 0)
(-0.0273608 0.05488 0)
(-0.0249674 0.0612543 0)
(-0.0208386 0.0718682 0)
(-0.0144105 0.0866991 0)
(-0.00613849 0.101503 0)
(0.000864398 0.102105 0)
(0.00622035 0.0644588 0)
(0.00380013 -0.0270798 0)
(-0.00167195 -0.171987 0)
(-0.0541813 -0.368455 0)
(0.016699 -0.46455 0)
(-0.00463335 0.0416342 0)
(-0.0147615 0.0637289 0)
(-0.0227046 0.0629234 0)
(-0.0263948 0.059039 0)
(-0.0279485 0.0554783 0)
(-0.0287618 0.0527367 0)
(-0.0289278 0.0508381 0)
(-0.028164 0.0498215 0)
(-0.0260943 0.0499549 0)
(-0.0221909 0.051731 0)
(-0.0157189 0.055995 0)
(-0.00579419 0.0634766 0)
(0.00895124 0.0747961 0)
(0.0288686 0.0868967 0)
(0.0492692 0.0895481 0)
(0.0663037 0.0622329 0)
(0.0644775 -0.0131911 0)
(0.0580773 -0.142494 0)
(-0.0176553 -0.355472 0)
(0.044764 -0.483716 0)
(-0.00279881 0.0376544 0)
(-0.0132264 0.0814903 0)
(-0.0268561 0.080366 0)
(-0.0322753 0.0693853 0)
(-0.0335019 0.0615232 0)
(-0.0327375 0.0562578 0)
(-0.0301628 0.0523016 0)
(-0.0258645 0.0491947 0)
(-0.0198361 0.0470582 0)
(-0.011725 0.0459688 0)
(-0.00128635 0.0465398 0)
(0.0129263 0.0491655 0)
(0.0317259 0.0548856 0)
(0.0558018 0.0611501 0)
(0.0802014 0.0627708 0)
(0.104615 0.0446557 0)
(0.102965 -0.00697292 0)
(0.1002 -0.117812 0)
(0.0327932 -0.319832 0)
(0.08985 -0.456141 0)
(-0.0974116 0.0974649 0)
(-0.0744027 0.0765199 0)
(-0.0644008 0.057189 0)
(-0.0427359 0.049324 0)
(-0.0228562 0.0438648 0)
(-0.00324652 0.0393728 0)
(0.0153518 0.0356572 0)
(0.0342407 0.032493 0)
(0.0516687 0.0302194 0)
(0.0706441 0.0282929 0)
(0.0875718 0.0274032 0)
(0.108502 0.0272455 0)
(0.125708 0.0287931 0)
(0.15143 0.0309135 0)
(0.16337 0.03023 0)
(0.196533 0.0213086 0)
(0.185208 -0.0128312 0)
(0.202973 -0.0911802 0)
(0.148797 -0.233737 0)
(0.170228 -0.345416 0)
(0.135803 0.109886 0)
(0.172092 0.0876281 0)
(0.232315 0.0658803 0)
(0.287542 0.0517057 0)
(0.329817 0.0424849 0)
(0.367104 0.0355692 0)
(0.39541 0.0304099 0)
(0.425356 0.026011 0)
(0.44604 0.0227793 0)
(0.473078 0.0198546 0)
(0.487986 0.0178699 0)
(0.515253 0.0159751 0)
(0.524973 0.0151523 0)
(0.554613 0.0139384 0)
(0.555934 0.0138042 0)
(0.583077 0.0103397 0)
(0.558965 0.0045819 0)
(0.554633 -0.0167405 0)
(0.44934 -0.0481298 0)
(0.342508 -0.100229 0)
)
;

boundaryField
{
    movingWall
    {
        type            fixedValue;
        value           uniform (1 0 0);
    }
    fixedWalls
    {
        type            noSlip;
    }
    frontAndBack
    {
        type            empty;
    }
}


// ************************************************************************* //
