/*--------------------------------*- C++ -*----------------------------------*\
| =========                 |                                                 |
| \\      /  F ield         | OpenFOAM: The Open Source CFD Toolbox           |
|  \\    /   O peration     | Version:  2212                                  |
|   \\  /    A nd           | Website:  www.openfoam.com                      |
|    \\/     M anipulation  |                                                 |
\*---------------------------------------------------------------------------*/
FoamFile
{
    version     2.0;
    format      ascii;
    arch        "LSB;label=32;scalar=64";
    class       surfaceScalarField;
    location    "0.74";
    object      phi;
}
// * * * * * * * * * * * * * * * * * * * * * * * * * * * * * * * * * * * * * //

dimensions      [0 3 -1 0 0 0 0];

oriented        oriented;

internalField   nonuniform List<scalar> 
760
(
-3.97013e-08
3.97012e-08
-1.40088e-07
1.00387e-07
-2.651e-07
1.25012e-07
-3.99812e-07
1.34711e-07
-5.42479e-07
1.42667e-07
-6.94967e-07
1.52488e-07
-8.58362e-07
1.63395e-07
-1.03041e-06
1.72049e-07
-1.20278e-06
1.72365e-07
-1.35787e-06
1.55091e-07
-1.46698e-06
1.09113e-07
-1.49327e-06
2.62928e-08
-1.39383e-06
-9.94413e-08
-1.1551e-06
-2.38732e-07
-8.02363e-07
-3.52737e-07
-4.13127e-07
-3.89237e-07
-9.31968e-08
-3.1993e-07
7.65882e-08
-1.69785e-07
7.85499e-08
-1.96178e-09
7.85502e-08
-1.21937e-07
1.61638e-07
-3.51302e-07
3.29752e-07
-6.25333e-07
3.99043e-07
-9.2078e-07
4.30158e-07
-1.23161e-06
4.53497e-07
-1.55631e-06
4.77185e-07
-1.89097e-06
4.98055e-07
-2.22485e-06
5.05936e-07
-2.53662e-06
4.84127e-07
-2.79136e-06
4.09837e-07
-2.94077e-06
2.5852e-07
-2.93284e-06
1.83688e-08
-2.71412e-06
-3.18166e-07
-2.26706e-06
-6.85787e-07
-1.63811e-06
-9.81693e-07
-9.44626e-07
-1.08272e-06
-3.51063e-07
-9.13493e-07
-1.91977e-09
-5.18929e-07
7.38696e-08
-7.77509e-08
1.5242e-07
-1.73821e-07
3.35459e-07
-4.82079e-07
6.38009e-07
-8.43623e-07
7.60588e-07
-1.23083e-06
8.17368e-07
-1.63564e-06
8.58303e-07
-2.05428e-06
8.95821e-07
-2.47981e-06
9.23588e-07
-2.89775e-06
9.23873e-07
-3.28281e-06
8.69191e-07
-3.5965e-06
7.23526e-07
-3.78654e-06
4.48558e-07
-3.79631e-06
2.81452e-08
-3.55595e-06
-5.58527e-07
-3.03145e-06
-1.21029e-06
-2.25362e-06
-1.75953e-06
-1.34896e-06
-1.98737e-06
-5.28218e-07
-1.73424e-06
-1.67814e-08
-1.03036e-06
1.01403e-07
-1.95935e-07
2.53823e-07
-1.99918e-07
5.35377e-07
-5.50719e-07
9.8881e-07
-9.59602e-07
1.16947e-06
-1.39637e-06
1.25414e-06
-1.85298e-06
1.31491e-06
-2.3265e-06
1.36934e-06
-2.81169e-06
1.40878e-06
-3.29731e-06
1.40949e-06
-3.76373e-06
1.33562e-06
-4.18022e-06
1.14001e-06
-4.49965e-06
7.67986e-07
-4.65397e-06
1.82465e-07
-4.55292e-06
-6.59575e-07
-4.0934e-06
-1.66981e-06
-3.24949e-06
-2.60344e-06
-2.12175e-06
-3.11511e-06
-9.52023e-07
-2.90396e-06
-1.05664e-07
-1.87672e-06
1.39625e-07
-4.41224e-07
3.93447e-07
-2.07997e-07
7.43375e-07
-5.75173e-07
1.35599e-06
-1.00431e-06
1.59861e-06
-1.46452e-06
1.71435e-06
-1.9496e-06
1.79999e-06
-2.46058e-06
1.88032e-06
-2.99892e-06
1.94712e-06
-3.56397e-06
1.97454e-06
-4.15197e-06
1.92362e-06
-4.75323e-06
1.74127e-06
-5.33638e-06
1.35114e-06
-5.81231e-06
6.58394e-07
-6.05302e-06
-4.18865e-07
-5.83018e-06
-1.89265e-06
-5.04086e-06
-3.39276e-06
-3.72031e-06
-4.43567e-06
-2.06572e-06
-4.55855e-06
-5.54505e-07
-3.38794e-06
1.28819e-07
-1.12455e-06
5.22266e-07
-2.02871e-07
9.46246e-07
-5.67212e-07
1.72033e-06
-9.97172e-07
2.02857e-06
-1.46269e-06
2.17987e-06
-1.96067e-06
2.29797e-06
-2.49855e-06
2.4182e-06
-3.08894e-06
2.53751e-06
-3.74894e-06
2.63455e-06
-4.50087e-06
2.67555e-06
-5.36713e-06
2.60752e-06
-6.33638e-06
2.3204e-06
-7.28241e-06
1.60442e-06
-7.95407e-06
2.52794e-07
-8.06544e-06
-1.78128e-06
-7.46555e-06
-3.99265e-06
-6.11835e-06
-5.78287e-06
-4.05656e-06
-6.62034e-06
-1.68121e-06
-5.76329e-06
-8.06121e-08
-2.72514e-06
4.41654e-07
-1.87415e-07
1.13366e-06
-5.33718e-07
2.06663e-06
-9.48593e-07
2.44344e-06
-1.40345e-06
2.63472e-06
-1.89849e-06
2.79301e-06
-2.44849e-06
2.9682e-06
-3.07943e-06
3.16845e-06
-3.83031e-06
3.38543e-06
-4.75279e-06
3.59803e-06
-5.89302e-06
3.74776e-06
-7.22853e-06
3.6559e-06
-8.57061e-06
2.9465e-06
-9.54223e-06
1.22441e-06
-9.90167e-06
-1.42184e-06
-9.5949e-06
-4.29942e-06
-8.532e-06
-6.84577e-06
-6.51586e-06
-8.63648e-06
-3.59212e-06
-8.68702e-06
-6.91284e-07
-5.62598e-06
-2.49631e-07
-1.63553e-07
1.29721e-06
-4.78861e-07
2.38194e-06
-8.63864e-07
2.82845e-06
-1.29101e-06
3.06187e-06
-1.76251e-06
3.2645e-06
-2.29876e-06
3.50445e-06
-2.93668e-06
3.80637e-06
-3.73195e-06
4.18071e-06
-4.75135e-06
4.61743e-06
-6.02982e-06
5.02623e-06
-7.48448e-06
5.11056e-06
-8.86428e-06
4.32631e-06
-9.86262e-06
2.22275e-06
-1.02808e-05
-1.00363e-06
-1.02941e-05
-4.28611e-06
-9.77119e-06
-7.36874e-06
-8.40858e-06
-9.99909e-06
-5.75741e-06
-1.13382e-05
-1.90422e-06
-9.47917e-06
-2.15385e-06
-1.33152e-07
1.43037e-06
-4.06393e-07
2.65518e-06
-7.47289e-07
3.16934e-06
-1.12784e-06
3.44242e-06
-1.5491e-06
3.68576e-06
-2.03187e-06
3.98722e-06
-2.61447e-06
4.38897e-06
-3.35156e-06
4.9178e-06
-4.29645e-06
5.56231e-06
-5.44498e-06
6.17477e-06
-6.66699e-06
6.33256e-06
-7.73254e-06
5.39187e-06
-8.4975e-06
2.98771e-06
-8.93405e-06
-5.67079e-07
-9.15543e-06
-4.06473e-06
-9.13422e-06
-7.38995e-06
-8.62596e-06
-1.05074e-05
-6.92048e-06
-1.30437e-05
-3.33462e-06
-1.3065e-05
-5.48847e-06
-9.88591e-08
1.52923e-06
-3.21819e-07
2.87814e-06
-6.06144e-07
3.45367e-06
-9.21385e-07
3.75766e-06
-1.26341e-06
4.02778e-06
-1.64622e-06
4.37003e-06
-2.09705e-06
4.8398e-06
-2.6504e-06
5.47115e-06
-3.3295e-06
6.24142e-06
-4.10584e-06
6.95111e-06
-4.87371e-06
7.10043e-06
-5.51353e-06
6.03168e-06
-6.00146e-06
3.47564e-06
-6.4439e-06
-1.24634e-07
-6.74407e-06
-3.76456e-06
-7.0128e-06
-7.12122e-06
-7.16621e-06
-1.0354e-05
-6.52163e-06
-1.36882e-05
-4.084e-06
-1.55027e-05
-9.57247e-06
-6.45824e-08
1.59381e-06
-2.33769e-07
3.04733e-06
-4.53293e-07
3.67319e-06
-6.88707e-07
3.99308e-06
-9.27813e-07
4.26689e-06
-1.17285e-06
4.61507e-06
-1.43287e-06
5.09982e-06
-1.71594e-06
5.75422e-06
-2.02008e-06
6.54555e-06
-2.32909e-06
7.26012e-06
-2.61722e-06
7.38857e-06
-2.89398e-06
6.30844e-06
-3.21233e-06
3.79399e-06
-3.63328e-06
2.96316e-07
-4.06137e-06
-3.33647e-06
-4.54553e-06
-6.63706e-06
-5.12773e-06
-9.77176e-06
-5.26537e-06
-1.35506e-05
-3.70603e-06
-1.7062e-05
-1.32785e-05
-3.57816e-08
1.62959e-06
-1.54548e-07
3.1661e-06
-3.07547e-07
3.82619e-06
-4.56248e-07
4.14178e-06
-5.80672e-07
4.39131e-06
-6.71156e-07
4.70555e-06
-7.18617e-07
5.14728e-06
-7.08756e-07
5.74436e-06
-6.22929e-07
6.45972e-06
-4.80237e-07
7.11742e-06
-3.52449e-07
7.26078e-06
-3.44478e-07
6.30047e-06
-5.01446e-07
3.95096e-06
-9.07171e-07
7.02041e-07
-1.47705e-06
-2.76659e-06
-2.1971e-06
-5.91701e-06
-3.12193e-06
-8.84692e-06
-3.85135e-06
-1.28212e-05
-2.99213e-06
-1.79212e-05
-1.62706e-05
-1.89308e-08
1.64852e-06
-9.9088e-08
3.24625e-06
-1.92271e-07
3.91937e-06
-2.56492e-07
4.206e-06
-2.67338e-07
4.40216e-06
-2.07376e-07
4.64559e-06
-5.42569e-08
4.99416e-06
2.16245e-07
5.47386e-06
6.18506e-07
6.05746e-06
1.14967e-06
6.58626e-06
1.69918e-06
6.71128e-06
2.0656e-06
5.93404e-06
2.05641e-06
3.96015e-06
1.6421e-06
1.11636e-06
9.42813e-07
-2.06731e-06
1.13917e-08
-4.98559e-06
-1.26356e-06
-7.57197e-06
-2.47379e-06
-1.1611e-05
-2.30069e-06
-1.80943e-05
-1.85713e-05
-2.32078e-08
1.67173e-06
-8.5861e-08
3.30891e-06
-1.31447e-07
3.96496e-06
-1.19037e-07
4.19359e-06
-2.73571e-08
4.31048e-06
1.60683e-07
4.45755e-06
4.60411e-07
4.69443e-06
9.05342e-07
5.02893e-06
1.52967e-06
5.43314e-06
2.32026e-06
5.79567e-06
3.16153e-06
5.87001e-06
3.80603e-06
5.28954e-06
4.0004e-06
3.76579e-06
3.66242e-06
1.45433e-06
2.83536e-06
-1.24024e-06
1.68425e-06
-3.83448e-06
2.22238e-07
-6.10996e-06
-1.31102e-06
-1.00777e-05
-1.66593e-06
-1.77394e-05
-2.02373e-05
-6.00069e-08
1.73174e-06
-1.38941e-07
3.38784e-06
-1.57574e-07
3.98359e-06
-7.81696e-08
4.11418e-06
1.04714e-07
4.12759e-06
3.93913e-07
4.16835e-06
8.07778e-07
4.28057e-06
1.37074e-06
4.46596e-06
2.10674e-06
4.69714e-06
3.00603e-06
4.89637e-06
3.97007e-06
4.90598e-06
4.77581e-06
4.48379e-06
5.14707e-06
3.39452e-06
4.94602e-06
1.65539e-06
4.13298e-06
-4.2721e-07
2.86741e-06
-2.56891e-06
1.24554e-06
-4.48809e-06
-4.66526e-07
-8.36563e-06
-1.16347e-06
-1.70425e-05
-2.14007e-05
-1.42286e-07
1.87402e-06
-2.73361e-07
3.51892e-06
-2.7494e-07
3.98517e-06
-1.37017e-07
3.97626e-06
1.23289e-07
3.86729e-06
4.96621e-07
3.79502e-06
9.89579e-07
3.78761e-06
1.61649e-06
3.83905e-06
2.38934e-06
3.92429e-06
3.29588e-06
3.98983e-06
4.26016e-06
3.94171e-06
5.10984e-06
3.63411e-06
5.58648e-06
2.91788e-06
5.50384e-06
1.73803e-06
4.81515e-06
2.61473e-07
3.57299e-06
-1.32675e-06
1.98343e-06
-2.89852e-06
2.56906e-07
-6.63911e-06
-5.65542e-07
-1.622e-05
-2.19663e-05
-3.44773e-07
2.21879e-06
-6.50635e-07
3.82478e-06
-6.15102e-07
3.94964e-06
-3.52605e-07
3.71376e-06
2.54021e-08
3.48928e-06
4.89672e-07
3.33075e-06
1.04671e-06
3.23057e-06
1.71007e-06
3.17569e-06
2.48346e-06
3.1509e-06
3.35394e-06
3.11935e-06
4.25783e-06
3.03782e-06
5.07395e-06
2.81799e-06
5.58988e-06
2.40194e-06
5.6175e-06
1.71042e-06
5.03739e-06
8.41577e-07
3.95599e-06
-2.45351e-07
2.60517e-06
-1.5477e-06
1.31061e-06
-5.34455e-06
2.22237e-07
-1.51316e-05
-2.1744e-05
-3.77546e-07
2.59634e-06
-7.60541e-07
4.20777e-06
-8.1529e-07
4.00439e-06
-6.15103e-07
3.51358e-06
-2.38206e-07
3.11238e-06
2.52406e-07
2.84014e-06
8.48134e-07
2.63484e-06
1.54909e-06
2.47474e-06
2.33809e-06
2.3619e-06
3.20221e-06
2.25522e-06
4.07704e-06
2.16299e-06
4.88707e-06
2.00797e-06
5.47834e-06
1.81067e-06
5.71337e-06
1.47539e-06
5.4832e-06
1.07176e-06
4.85701e-06
3.8083e-07
4.15038e-06
-8.41066e-07
3.22772e-06
-4.42189e-06
1.54044e-06
-1.34443e-05
-2.02036e-05
-3.92041e-06
6.51675e-06
-3.69601e-06
3.98338e-06
-2.41072e-06
2.71909e-06
-1.13732e-06
2.24018e-06
3.47981e-08
1.94026e-06
1.18192e-06
1.69301e-06
2.31108e-06
1.50568e-06
3.44002e-06
1.3458e-06
4.56027e-06
1.24165e-06
5.67779e-06
1.1377e-06
6.76111e-06
1.07967e-06
7.78111e-06
9.87969e-07
8.65545e-06
9.36326e-07
9.32349e-06
8.07351e-07
9.73463e-06
6.60611e-07
9.82671e-06
2.88749e-07
9.65278e-06
-6.67132e-07
8.939e-06
-3.70812e-06
5.17167e-06
-9.67702e-06
-1.50319e-05
6.51675e-06
1.05001e-05
1.32192e-05
1.54594e-05
1.73997e-05
1.90927e-05
2.05984e-05
2.19442e-05
2.31858e-05
2.43235e-05
2.54032e-05
2.63911e-05
2.73275e-05
2.81348e-05
2.87954e-05
2.90842e-05
2.84171e-05
2.47089e-05
1.50319e-05
)
;

boundaryField
{
    movingWall
    {
        type            calculated;
        value           uniform 0;
    }
    fixedWalls
    {
        type            calculated;
        value           uniform 0;
    }
    frontAndBack
    {
        type            empty;
        value           nonuniform List<scalar> 0();
    }
}


// ************************************************************************* //
