/*--------------------------------*- C++ -*----------------------------------*\
| =========                 |                                                 |
| \\      /  F ield         | OpenFOAM: The Open Source CFD Toolbox           |
|  \\    /   O peration     | Version:  2212                                  |
|   \\  /    A nd           | Website:  www.openfoam.com                      |
|    \\/     M anipulation  |                                                 |
\*---------------------------------------------------------------------------*/
FoamFile
{
    version     2.0;
    format      ascii;
    arch        "LSB;label=32;scalar=64";
    class       surfaceScalarField;
    location    "3.16";
    object      phi;
}
// * * * * * * * * * * * * * * * * * * * * * * * * * * * * * * * * * * * * * //

dimensions      [0 3 -1 0 0 0 0];

oriented        oriented;

internalField   nonuniform List<scalar> 
760
(
1.46967e-07
-1.46968e-07
2.74297e-07
-1.27331e-07
2.86379e-07
-1.20816e-08
1.61166e-07
1.25213e-07
-1.3606e-07
2.97225e-07
-6.66131e-07
5.30071e-07
-1.46008e-06
7.93945e-07
-2.43699e-06
9.76918e-07
-3.40429e-06
9.67296e-07
-4.13521e-06
7.30924e-07
-4.4628e-06
3.27582e-07
-4.29056e-06
-1.72241e-07
-3.55806e-06
-7.32499e-07
-2.37512e-06
-1.18294e-06
-9.66218e-07
-1.4089e-06
3.01013e-07
-1.26723e-06
1.04249e-06
-7.41475e-07
1.00232e-06
4.01729e-08
4.49673e-07
5.52642e-07
4.49673e-07
1.10275e-07
-2.57244e-07
4.8905e-08
-6.59603e-08
-3.18144e-07
3.54968e-07
-1.07859e-06
8.85662e-07
-2.27752e-06
1.49616e-06
-3.84157e-06
2.09411e-06
-5.53425e-06
2.48663e-06
-7.0526e-06
2.49527e-06
-8.17237e-06
2.08706e-06
-8.78051e-06
1.33907e-06
-8.82815e-06
3.75215e-07
-8.29022e-06
-7.1017e-07
-7.19741e-06
-1.8253e-06
-5.58095e-06
-2.7994e-06
-3.58154e-06
-3.40832e-06
-1.49829e-06
-3.35048e-06
1.47883e-07
-2.38765e-06
8.29907e-07
-6.41851e-07
5.13048e-07
8.69502e-07
9.62721e-07
-1.36691e-07
-1.20552e-07
-6.38256e-07
4.35604e-07
-1.60329e-06
1.32e-06
-3.07347e-06
2.35584e-06
-4.93467e-06
3.35735e-06
-6.90402e-06
4.06347e-06
-8.67468e-06
4.25729e-06
-1.00641e-05
3.8847e-06
-1.10158e-05
3.03874e-06
-1.15199e-05
1.84315e-06
-1.15282e-05
3.83551e-07
-1.10857e-05
-1.15265e-06
-1.01762e-05
-2.73479e-06
-8.74582e-06
-4.22981e-06
-6.77374e-06
-5.3804e-06
-4.34813e-06
-5.77608e-06
-1.8619e-06
-4.87388e-06
-9.40123e-08
-2.40974e-06
2.89626e-07
4.85864e-07
1.25235e-06
-4.92001e-07
3.71449e-07
-1.52564e-06
1.46924e-06
-3.039e-06
2.83337e-06
-4.94524e-06
4.26208e-06
-6.99992e-06
5.41203e-06
-8.90542e-06
5.96897e-06
-1.04588e-05
5.81066e-06
-1.16108e-05
5.03665e-06
-1.23859e-05
3.81387e-06
-1.28179e-05
2.27512e-06
-1.28938e-05
4.59518e-07
-1.26667e-05
-1.37979e-06
-1.21019e-05
-3.29961e-06
-1.10978e-05
-5.2339e-06
-9.52379e-06
-6.95437e-06
-7.25629e-06
-8.04358e-06
-4.33524e-06
-7.79493e-06
-1.36341e-06
-5.38157e-06
1.16671e-07
-9.94221e-07
1.36902e-06
-8.36261e-07
1.20771e-06
-2.2911e-06
2.92408e-06
-4.10783e-06
4.6501e-06
-6.10462e-06
6.25888e-06
-8.01189e-06
7.3193e-06
-9.60844e-06
7.56551e-06
-1.08114e-05
7.01357e-06
-1.16416e-05
5.86689e-06
-1.21588e-05
4.33113e-06
-1.24353e-05
2.55162e-06
-1.25593e-05
5.83446e-07
-1.25239e-05
-1.41514e-06
-1.23182e-05
-3.5053e-06
-1.18619e-05
-5.6902e-06
-1.09688e-05
-7.84755e-06
-9.35245e-06
-9.6599e-06
-6.71977e-06
-1.04276e-05
-3.17429e-06
-8.92705e-06
-2.60857e-07
-3.90765e-06
1.10816e-06
-1.04836e-06
2.25607e-06
-2.69353e-06
4.56925e-06
-4.53577e-06
6.49233e-06
-6.3541e-06
8.07721e-06
-7.92909e-06
8.89429e-06
-9.12609e-06
8.76251e-06
-9.93365e-06
7.82113e-06
-1.04124e-05
6.34562e-06
-1.06511e-05
4.56987e-06
-1.07505e-05
2.65104e-06
-1.08322e-05
6.65078e-07
-1.08915e-05
-1.3558e-06
-1.09404e-05
-3.45638e-06
-1.09484e-05
-5.68219e-06
-1.07593e-05
-8.03669e-06
-1.00442e-05
-1.0375e-05
-8.31305e-06
-1.21588e-05
-5.16072e-06
-1.20794e-05
-1.14112e-06
-7.92725e-06
-3.29639e-08
-1.06822e-06
3.32429e-06
-2.66542e-06
6.16645e-06
-4.32032e-06
8.14722e-06
-5.82607e-06
9.58296e-06
-7.02379e-06
1.0092e-05
-7.84534e-06
9.58406e-06
-8.32134e-06
8.29713e-06
-8.53516e-06
6.55944e-06
-8.59017e-06
4.62488e-06
-8.58642e-06
2.64728e-06
-8.611e-06
6.89656e-07
-8.68755e-06
-1.27924e-06
-8.83532e-06
-3.30861e-06
-9.06451e-06
-5.453e-06
-9.31392e-06
-7.78729e-06
-9.34596e-06
-1.03429e-05
-8.63912e-06
-1.28656e-05
-6.44582e-06
-1.42727e-05
-2.38213e-06
-1.19909e-05
-2.41509e-06
-8.98381e-07
4.22267e-06
-2.26703e-06
7.5351e-06
-3.62075e-06
9.50095e-06
-4.77747e-06
1.07397e-05
-5.63473e-06
1.09493e-05
-6.17004e-06
1.01194e-05
-6.43487e-06
8.56197e-06
-6.51786e-06
6.64243e-06
-6.51674e-06
4.62376e-06
-6.50877e-06
2.63932e-06
-6.53494e-06
7.15825e-07
-6.61469e-06
-1.1995e-06
-6.77075e-06
-3.15255e-06
-7.03415e-06
-5.1896e-06
-7.41913e-06
-7.40231e-06
-7.82699e-06
-9.93505e-06
-7.83898e-06
-1.28536e-05
-6.63793e-06
-1.54737e-05
-3.52652e-06
-1.51024e-05
-5.94161e-06
-5.98499e-07
4.82117e-06
-1.62864e-06
8.56524e-06
-2.63718e-06
1.05095e-05
-3.45905e-06
1.15616e-05
-4.03652e-06
1.15267e-05
-4.37549e-06
1.04583e-05
-4.53118e-06
8.71765e-06
-4.58121e-06
6.69246e-06
-4.60012e-06
4.64266e-06
-4.63545e-06
2.67465e-06
-4.70012e-06
7.80494e-07
-4.80185e-06
-1.09776e-06
-4.95241e-06
-3.00199e-06
-5.18236e-06
-4.95965e-06
-5.54766e-06
-7.03701e-06
-6.05719e-06
-9.42552e-06
-6.47989e-06
-1.24309e-05
-6.06692e-06
-1.58867e-05
-3.8784e-06
-1.72909e-05
-9.82e-06
-2.20976e-07
5.04215e-06
-8.60804e-07
9.20507e-06
-1.51589e-06
1.11646e-05
-2.03293e-06
1.20786e-05
-2.38198e-06
1.18758e-05
-2.585e-06
1.06614e-05
-2.68894e-06
8.82159e-06
-2.74731e-06
6.75083e-06
-2.80671e-06
4.70207e-06
-2.89131e-06
2.75925e-06
-3.00453e-06
8.93712e-07
-3.14643e-06
-9.55861e-07
-3.31847e-06
-2.82995e-06
-3.53518e-06
-4.74295e-06
-3.85178e-06
-6.7204e-06
-4.35033e-06
-8.92697e-06
-4.96713e-06
-1.18141e-05
-5.08564e-06
-1.57682e-05
-3.5322e-06
-1.88443e-05
-1.33522e-05
1.58749e-07
4.8834e-06
-6.5602e-08
9.42942e-06
-3.89285e-07
1.14883e-05
-6.32521e-07
1.23218e-05
-7.79464e-07
1.20227e-05
-8.60256e-07
1.07422e-05
-9.14781e-07
8.87612e-06
-9.76134e-07
6.81218e-06
-1.06181e-06
4.78775e-06
-1.17961e-06
2.87705e-06
-1.33121e-06
1.04531e-06
-1.51851e-06
-7.68565e-07
-1.74122e-06
-2.60724e-06
-1.99897e-06
-4.48519e-06
-2.32364e-06
-6.39573e-06
-2.81337e-06
-8.43724e-06
-3.52555e-06
-1.1102e-05
-4.00703e-06
-1.52867e-05
-3.01356e-06
-1.98378e-05
-1.63658e-05
4.80686e-07
4.40271e-06
6.72855e-07
9.23725e-06
7.15778e-07
1.14453e-05
7.54083e-07
1.22835e-05
8.04516e-07
1.19723e-05
8.40032e-07
1.07066e-05
8.38709e-07
8.87744e-06
7.91227e-07
6.85966e-06
6.9956e-07
4.87942e-06
5.66711e-07
3.0099e-06
3.89285e-07
1.22274e-06
1.6114e-07
-5.4042e-07
-1.19933e-07
-2.32617e-06
-4.61701e-07
-4.14343e-06
-8.71292e-07
-5.98614e-06
-1.40053e-06
-7.908e-06
-2.19687e-06
-1.03056e-05
-2.9575e-06
-1.45261e-05
-2.46315e-06
-2.03321e-05
-1.88289e-05
7.22084e-07
3.68063e-06
1.3002e-06
8.65914e-06
1.68332e-06
1.10622e-05
2.00931e-06
1.19575e-05
2.28447e-06
1.16971e-05
2.47496e-06
1.05161e-05
2.56887e-06
8.78353e-06
2.57571e-06
6.85282e-06
2.51085e-06
4.94428e-06
2.3842e-06
3.13654e-06
2.19119e-06
1.41575e-06
1.91789e-06
-2.67123e-07
1.56244e-06
-1.97072e-06
1.12025e-06
-3.70123e-06
5.8495e-07
-5.45085e-06
-1.0005e-07
-7.223e-06
-9.79123e-07
-9.42654e-06
-1.94576e-06
-1.35595e-05
-1.93789e-06
-2.034e-05
-2.07668e-05
8.283e-07
2.85233e-06
1.73367e-06
7.75377e-06
2.45474e-06
1.03412e-05
3.08417e-06
1.13281e-05
3.62736e-06
1.1154e-05
4.03753e-06
1.0106e-05
4.29464e-06
8.52642e-06
4.4109e-06
6.73657e-06
4.41059e-06
4.94459e-06
4.31132e-06
3.23581e-06
4.11304e-06
1.61403e-06
3.79404e-06
5.18762e-08
3.35847e-06
-1.53515e-06
2.78972e-06
-3.13248e-06
2.08596e-06
-4.74709e-06
1.2611e-06
-6.39814e-06
2.18492e-07
-8.38394e-06
-1.00161e-06
-1.23394e-05
-1.44785e-06
-1.98938e-05
-2.22147e-05
7.64555e-07
2.08777e-06
1.86472e-06
6.6536e-06
2.87485e-06
9.33102e-06
3.82696e-06
1.0376e-05
4.69107e-06
1.02898e-05
5.39828e-06
9.39875e-06
5.90558e-06
8.01912e-06
6.21365e-06
6.4285e-06
6.34426e-06
4.81397e-06
6.31833e-06
3.26174e-06
6.13826e-06
1.7941e-06
5.7957e-06
3.94438e-07
5.26943e-06
-1.00888e-06
4.55948e-06
-2.42253e-06
3.65842e-06
-3.84602e-06
2.59401e-06
-5.33373e-06
1.31789e-06
-7.10782e-06
-1.9533e-07
-1.08261e-05
-9.43516e-07
-1.91456e-05
-2.31582e-05
5.45512e-07
1.54226e-06
1.67262e-06
5.52649e-06
2.96558e-06
8.03807e-06
4.28028e-06
9.06128e-06
5.52044e-06
9.04969e-06
6.58579e-06
8.3334e-06
7.40758e-06
7.19733e-06
7.97046e-06
5.86563e-06
8.28671e-06
4.49772e-06
8.37517e-06
3.17328e-06
8.24399e-06
1.92528e-06
7.89272e-06
7.45705e-07
7.27941e-06
-3.9557e-07
6.42006e-06
-1.56318e-06
5.30181e-06
-2.72777e-06
3.96674e-06
-3.99867e-06
2.47441e-06
-5.61549e-06
8.83108e-07
-9.23482e-06
-1.79156e-07
-1.80833e-05
-2.33373e-05
1.33513e-07
1.40875e-06
9.68958e-07
4.69104e-06
2.39312e-06
6.61391e-06
4.06591e-06
7.38849e-06
5.7479e-06
7.36771e-06
7.25285e-06
6.82845e-06
8.47548e-06
5.9747e-06
9.3838e-06
4.95731e-06
9.97179e-06
3.90973e-06
1.02528e-05
2.89222e-06
1.02331e-05
1.94501e-06
9.91991e-06
1.05891e-06
9.27833e-06
2.46014e-07
8.31419e-06
-5.99044e-07
7.02962e-06
-1.44319e-06
5.47252e-06
-2.44157e-06
3.79792e-06
-3.94089e-06
2.17207e-06
-7.60897e-06
6.2639e-07
-1.65376e-05
-2.27109e-05
-5.04026e-07
1.91277e-06
1.72117e-07
4.0149e-06
1.66373e-06
5.12229e-06
3.6606e-06
5.39162e-06
5.75744e-06
5.27086e-06
7.67306e-06
4.91283e-06
9.269e-06
4.37876e-06
1.05028e-05
3.72352e-06
1.13549e-05
3.05763e-06
1.18433e-05
2.40385e-06
1.19729e-05
1.81538e-06
1.17652e-05
1.26661e-06
1.12371e-05
7.74069e-07
1.03719e-05
2.66178e-07
9.17319e-06
-2.44468e-07
7.70333e-06
-9.71714e-07
6.14932e-06
-2.38688e-06
4.39252e-06
-5.85218e-06
2.02878e-06
-1.41739e-05
-2.06822e-05
-4.16518e-06
6.07796e-06
-3.63722e-06
3.48694e-06
-1.28591e-06
2.77098e-06
1.45441e-06
2.6513e-06
4.13582e-06
2.58945e-06
6.61886e-06
2.42979e-06
8.79473e-06
2.20289e-06
1.06041e-05
1.91417e-06
1.2029e-05
1.63269e-06
1.30954e-05
1.33742e-06
1.38203e-05
1.09057e-06
1.4247e-05
8.3986e-07
1.43664e-05
6.54703e-07
1.41919e-05
4.40683e-07
1.37054e-05
2.41954e-07
1.29216e-05
-1.87825e-07
1.18381e-05
-1.30344e-06
1.00768e-05
-4.09085e-06
5.62319e-06
-9.72029e-06
-1.5059e-05
6.07796e-06
9.56489e-06
1.23359e-05
1.49872e-05
1.75766e-05
2.00064e-05
2.22093e-05
2.41235e-05
2.57562e-05
2.70936e-05
2.81842e-05
2.9024e-05
2.96787e-05
3.01194e-05
3.03614e-05
3.01735e-05
2.88701e-05
2.47793e-05
1.5059e-05
)
;

boundaryField
{
    movingWall
    {
        type            calculated;
        value           uniform 0;
    }
    fixedWalls
    {
        type            calculated;
        value           uniform 0;
    }
    frontAndBack
    {
        type            empty;
        value           nonuniform List<scalar> 0();
    }
}


// ************************************************************************* //
