/*--------------------------------*- C++ -*----------------------------------*\
| =========                 |                                                 |
| \\      /  F ield         | OpenFOAM: The Open Source CFD Toolbox           |
|  \\    /   O peration     | Version:  2212                                  |
|   \\  /    A nd           | Website:  www.openfoam.com                      |
|    \\/     M anipulation  |                                                 |
\*---------------------------------------------------------------------------*/
FoamFile
{
    version     2.0;
    format      ascii;
    arch        "LSB;label=32;scalar=64";
    class       surfaceScalarField;
    location    "4.515";
    object      phi;
}
// * * * * * * * * * * * * * * * * * * * * * * * * * * * * * * * * * * * * * //

dimensions      [0 3 -1 0 0 0 0];

oriented        oriented;

internalField   nonuniform List<scalar> 
760
(
1.54649e-07
-1.54652e-07
2.90521e-07
-1.35872e-07
3.06152e-07
-1.56306e-08
1.79934e-07
1.26218e-07
-1.23043e-07
3.02977e-07
-6.66139e-07
5.43096e-07
-1.48116e-06
8.15024e-07
-2.48176e-06
1.0006e-06
-3.46746e-06
9.85695e-07
-4.20624e-06
7.38778e-07
-4.53123e-06
3.24997e-07
-4.34528e-06
-1.85953e-07
-3.59153e-06
-7.53757e-07
-2.38337e-06
-1.20815e-06
-9.49964e-07
-1.43341e-06
3.34876e-07
-1.28484e-06
1.0788e-06
-7.43922e-07
1.02667e-06
5.21317e-08
4.58798e-07
5.67868e-07
4.58797e-07
1.22565e-07
-2.77218e-07
7.01621e-08
-8.34685e-08
-3.01e-07
3.55532e-07
-1.07962e-06
9.04841e-07
-2.31042e-06
1.53377e-06
-3.91362e-06
2.1463e-06
-5.64066e-06
2.54206e-06
-7.17999e-06
2.53993e-06
-8.30747e-06
2.11317e-06
-8.91314e-06
1.34445e-06
-8.9498e-06
3.61658e-07
-8.39463e-06
-7.41118e-07
-7.27878e-06
-1.86961e-06
-5.63492e-06
-2.85202e-06
-3.60627e-06
-3.46205e-06
-1.49644e-06
-3.39467e-06
1.69242e-07
-2.40961e-06
8.51769e-07
-6.30394e-07
5.22888e-07
8.9675e-07
9.81685e-07
-1.2942e-07
-1.47798e-07
-6.35415e-07
4.22527e-07
-1.62247e-06
1.34259e-06
-3.13126e-06
2.41363e-06
-5.03732e-06
3.43983e-06
-7.04366e-06
4.15264e-06
-8.83653e-06
4.33492e-06
-1.02359e-05
3.93932e-06
-1.11899e-05
3.06711e-06
-1.16906e-05
1.84521e-06
-1.16871e-05
3.5814e-07
-1.12319e-05
-1.19634e-06
-1.0305e-05
-2.79651e-06
-8.852e-06
-4.30499e-06
-6.8527e-06
-5.46135e-06
-4.39553e-06
-5.85184e-06
-1.87856e-06
-4.92658e-06
-8.97421e-08
-2.41921e-06
2.93313e-07
5.13696e-07
1.275e-06
-4.99579e-07
3.51781e-07
-1.55517e-06
1.47812e-06
-3.10684e-06
2.89426e-06
-5.05827e-06
4.36506e-06
-7.15155e-06
5.53311e-06
-9.08073e-06
6.08182e-06
-1.0644e-05
5.89819e-06
-1.17984e-05
5.09368e-06
-1.25717e-05
3.84047e-06
-1.2999e-05
2.27249e-06
-1.30657e-05
4.24818e-07
-1.28293e-05
-1.43274e-06
-1.22518e-05
-3.37402e-06
-1.12312e-05
-5.3256e-06
-9.63629e-06
-7.05623e-06
-7.3424e-06
-8.14573e-06
-4.38762e-06
-7.88136e-06
-1.37715e-06
-5.42969e-06
1.1935e-07
-9.82802e-07
1.39435e-06
-8.57922e-07
1.2097e-06
-2.35002e-06
2.97022e-06
-4.21084e-06
4.75507e-06
-6.2472e-06
6.40142e-06
-8.17992e-06
7.46584e-06
-9.78704e-06
7.68895e-06
-1.09914e-05
7.10253e-06
-1.18191e-05
5.92137e-06
-1.23321e-05
4.35348e-06
-1.26035e-05
2.54388e-06
-1.2724e-05
5.45349e-07
-1.26813e-05
-1.47541e-06
-1.2466e-05
-3.58939e-06
-1.19984e-05
-5.79317e-06
-1.10919e-05
-7.96274e-06
-9.45844e-06
-9.77916e-06
-6.79952e-06
-1.05403e-05
-3.21407e-06
-9.01514e-06
-2.62098e-07
-3.93478e-06
1.13225e-06
-1.08028e-06
2.28999e-06
-2.76804e-06
4.65797e-06
-4.65099e-06
6.63803e-06
-6.49887e-06
8.2493e-06
-8.08844e-06
9.05541e-06
-9.2885e-06
8.88901e-06
-1.00942e-05
7.90825e-06
-1.05704e-05
6.39756e-06
-1.08076e-05
4.59067e-06
-1.09063e-05
2.64255e-06
-1.09882e-05
6.27267e-07
-1.10415e-05
-1.42206e-06
-1.10815e-05
-3.54939e-06
-1.10784e-05
-5.79636e-06
-1.08774e-05
-8.16372e-06
-1.01508e-05
-1.05058e-05
-8.40483e-06
-1.22862e-05
-5.22574e-06
-1.21942e-05
-1.15571e-06
-8.0048e-06
-2.34616e-08
-1.10296e-06
3.39295e-06
-2.74074e-06
6.29575e-06
-4.42866e-06
8.32594e-06
-5.95574e-06
9.77637e-06
-7.16228e-06
1.0262e-05
-7.98525e-06
9.71197e-06
-8.46149e-06
8.3845e-06
-8.67777e-06
6.61384e-06
-8.7381e-06
4.65099e-06
-8.74051e-06
2.64496e-06
-8.76878e-06
6.55537e-07
-8.8423e-06
-1.34854e-06
-8.98073e-06
-3.41095e-06
-9.19496e-06
-5.58213e-06
-9.42697e-06
-7.93171e-06
-9.44372e-06
-1.0489e-05
-8.72543e-06
-1.30045e-05
-6.51636e-06
-1.44033e-05
-2.41502e-06
-1.21062e-05
-2.43848e-06
-9.2867e-07
4.32162e-06
-2.3315e-06
7.69859e-06
-3.71078e-06
9.70522e-06
-4.88318e-06
1.09488e-05
-5.7476e-06
1.11264e-05
-6.2864e-06
1.02508e-05
-6.55598e-06
8.65407e-06
-6.64725e-06
6.70511e-06
-6.65705e-06
4.66079e-06
-6.65957e-06
2.64748e-06
-6.69187e-06
6.87829e-07
-6.77158e-06
-1.26883e-06
-6.92005e-06
-3.26249e-06
-7.16769e-06
-5.33449e-06
-7.53062e-06
-7.56878e-06
-7.91574e-06
-1.01039e-05
-7.91104e-06
-1.30092e-05
-6.69892e-06
-1.56154e-05
-3.57378e-06
-1.52313e-05
-6.01226e-06
-6.19837e-07
4.94145e-06
-1.67576e-06
8.75451e-06
-2.70313e-06
1.07326e-05
-3.53713e-06
1.17828e-05
-4.12191e-06
1.17111e-05
-4.46694e-06
1.05958e-05
-4.6306e-06
8.81774e-06
-4.69144e-06
6.76594e-06
-4.72248e-06
4.69183e-06
-4.76832e-06
2.69333e-06
-4.83969e-06
7.59198e-07
-4.94349e-06
-1.16503e-06
-5.08999e-06
-3.11599e-06
-5.30817e-06
-5.1163e-06
-5.65301e-06
-7.22394e-06
-6.13659e-06
-9.62033e-06
-6.53774e-06
-1.2608e-05
-6.1138e-06
-1.60394e-05
-3.9136e-06
-1.74315e-05
-9.92585e-06
-2.29999e-07
5.17145e-06
-8.86428e-07
9.41094e-06
-1.55422e-06
1.14004e-05
-2.0804e-06
1.23089e-05
-2.43683e-06
1.20676e-05
-2.64746e-06
1.08064e-05
-2.76031e-06
8.93058e-06
-2.8288e-06
6.83443e-06
-2.89816e-06
4.76119e-06
-2.9909e-06
2.78607e-06
-3.10993e-06
8.78224e-07
-3.25516e-06
-1.0198e-06
-3.42708e-06
-2.94406e-06
-3.63847e-06
-4.90492e-06
-3.941e-06
-6.92141e-06
-4.41643e-06
-9.1449e-06
-5.00948e-06
-1.2015e-05
-5.11497e-06
-1.59339e-05
-3.55254e-06
-1.89939e-05
-1.34784e-05
1.63284e-07
5.00817e-06
-6.84033e-08
9.64263e-06
-3.99347e-07
1.17313e-05
-6.48546e-07
1.25581e-05
-8.01623e-07
1.22207e-05
-8.89553e-07
1.08944e-05
-9.5186e-07
8.99289e-06
-1.02058e-06
6.90315e-06
-1.11249e-06
4.85309e-06
-1.23528e-06
2.90886e-06
-1.39127e-06
1.03421e-06
-1.58261e-06
-8.28457e-07
-1.80822e-06
-2.71845e-06
-2.06659e-06
-4.64655e-06
-2.38619e-06
-6.6018e-06
-2.86041e-06
-8.67067e-06
-3.55188e-06
-1.13235e-05
-4.02129e-06
-1.54645e-05
-3.0231e-06
-1.99921e-05
-1.65015e-05
4.98398e-07
4.50977e-06
6.95649e-07
9.44538e-06
7.38784e-07
1.16882e-05
7.74548e-07
1.25224e-05
8.19793e-07
1.21754e-05
8.4892e-07
1.08652e-05
8.4193e-07
8.99988e-06
7.9049e-07
6.95459e-06
6.96133e-07
4.94745e-06
5.60925e-07
3.04407e-06
3.80261e-07
1.21487e-06
1.47947e-07
-5.96143e-07
-1.38137e-07
-2.43237e-06
-4.84619e-07
-4.30007e-06
-8.96704e-07
-6.18972e-06
-1.42042e-06
-8.14695e-06
-2.20303e-06
-1.05409e-05
-2.95525e-06
-1.47122e-05
-2.46168e-06
-2.04857e-05
-1.89632e-05
7.52174e-07
3.7576e-06
1.34746e-06
8.85009e-06
1.73886e-06
1.12968e-05
2.06741e-06
1.21938e-05
2.33992e-06
1.19029e-05
2.52569e-06
1.06795e-05
2.61608e-06
8.90949e-06
2.62187e-06
6.9488e-06
2.55764e-06
5.01168e-06
2.4311e-06
3.17061e-06
2.2356e-06
1.41038e-06
1.95723e-06
-3.17778e-07
1.59553e-06
-2.07067e-06
1.14541e-06
-3.84994e-06
6.01786e-07
-5.64609e-06
-8.82422e-08
-7.45693e-06
-9.62242e-07
-9.66692e-06
-1.92545e-06
-1.3749e-05
-1.9282e-06
-2.04829e-05
-2.08914e-05
8.65766e-07
2.89183e-06
1.80115e-06
7.91471e-06
2.54025e-06
1.05577e-05
3.17927e-06
1.15548e-05
3.72533e-06
1.13568e-05
4.13472e-06
1.02701e-05
4.3911e-06
8.65311e-06
4.5085e-06
6.83141e-06
4.51057e-06
5.00961e-06
4.4133e-06
3.26788e-06
4.21529e-06
1.6084e-06
3.88727e-06
1.024e-08
3.44483e-06
-1.62823e-06
2.86468e-06
-3.26979e-06
2.14679e-06
-4.9282e-06
1.30835e-06
-6.61848e-06
2.57299e-07
-8.61587e-06
-9.6701e-07
-1.25247e-05
-1.43141e-06
-2.00185e-05
-2.23228e-05
8.01655e-07
2.09018e-06
1.94389e-06
6.77248e-06
2.98274e-06
9.51884e-06
3.95325e-06
1.05843e-05
4.82791e-06
1.04822e-05
5.54034e-06
9.55767e-06
6.05102e-06
8.14243e-06
6.36295e-06
6.51947e-06
6.4977e-06
4.87487e-06
6.47433e-06
3.29124e-06
6.29239e-06
1.79034e-06
5.94718e-06
3.55446e-07
5.4098e-06
-1.09085e-06
4.68469e-06
-2.54468e-06
3.76385e-06
-4.00736e-06
2.67554e-06
-5.53017e-06
1.37742e-06
-7.31774e-06
-1.61586e-07
-1.09857e-05
-9.18434e-07
-1.92617e-05
-2.32412e-05
5.74024e-07
1.51615e-06
1.74995e-06
5.59656e-06
3.08353e-06
8.18526e-06
4.43047e-06
9.23736e-06
5.69335e-06
9.21929e-06
6.77338e-06
8.47763e-06
7.60494e-06
7.31088e-06
8.17533e-06
5.94908e-06
8.49744e-06
4.55276e-06
8.58891e-06
3.19978e-06
8.45694e-06
1.9223e-06
8.09944e-06
7.12945e-07
7.47295e-06
-4.64352e-07
6.59406e-06
-1.6658e-06
5.4498e-06
-2.86311e-06
4.08108e-06
-4.16145e-06
2.55727e-06
-5.79392e-06
9.46266e-07
-9.37473e-06
-1.49388e-07
-1.8166e-05
-2.33906e-05
1.50104e-07
1.36605e-06
1.03243e-06
4.71423e-06
2.50438e-06
6.71332e-06
4.22136e-06
7.52038e-06
5.93891e-06
7.50173e-06
7.46967e-06
6.94687e-06
8.71083e-06
6.06972e-06
9.6327e-06
5.02721e-06
1.02306e-05
3.95484e-06
1.05169e-05
2.9135e-06
1.04978e-05
1.94136e-06
1.01795e-05
1.03127e-06
9.51854e-06
1.96611e-07
8.53296e-06
-6.80216e-07
7.21541e-06
-1.54555e-06
5.61658e-06
-2.56262e-06
3.89545e-06
-4.07279e-06
2.23107e-06
-7.71035e-06
6.49428e-07
-1.65844e-05
-2.27412e-05
-5.1583e-07
1.88188e-06
1.98072e-07
4.00032e-06
1.7478e-06
5.16359e-06
3.80514e-06
5.46304e-06
5.95484e-06
5.35203e-06
7.91121e-06
4.9905e-06
9.53765e-06
4.44328e-06
1.07929e-05
3.77191e-06
1.16597e-05
3.08806e-06
1.21549e-05
2.41828e-06
1.22829e-05
1.81342e-06
1.20639e-05
1.2503e-06
1.15201e-05
7.40379e-07
1.06251e-05
2.14783e-07
9.383e-06
-3.03464e-07
7.86411e-06
-1.04373e-06
6.25411e-06
-2.46279e-06
4.44959e-06
-5.90583e-06
2.05265e-06
-1.41875e-05
-2.06885e-05
-4.17779e-06
6.05967e-06
-3.64134e-06
3.46387e-06
-1.25025e-06
2.7725e-06
1.54287e-06
2.66993e-06
4.27684e-06
2.61806e-06
6.8061e-06
2.46124e-06
9.01818e-06
2.23121e-06
1.08533e-05
1.93682e-06
1.22935e-05
1.64786e-06
1.3366e-05
1.34572e-06
1.40882e-05
1.09125e-06
1.45046e-05
8.3395e-07
1.46035e-05
6.41418e-07
1.43952e-05
4.23098e-07
1.38716e-05
2.20169e-07
1.30479e-05
-2.20032e-07
1.1914e-05
-1.32892e-06
1.0109e-05
-4.10083e-06
5.63649e-06
-9.71495e-06
-1.5052e-05
6.05967e-06
9.52354e-06
1.2296e-05
1.4966e-05
1.7584e-05
2.00453e-05
2.22765e-05
2.42133e-05
2.58612e-05
2.72069e-05
2.82981e-05
2.91321e-05
2.97735e-05
3.01966e-05
3.04168e-05
3.01967e-05
2.88678e-05
2.4767e-05
1.5052e-05
)
;

boundaryField
{
    movingWall
    {
        type            calculated;
        value           uniform 0;
    }
    fixedWalls
    {
        type            calculated;
        value           uniform 0;
    }
    frontAndBack
    {
        type            empty;
        value           nonuniform List<scalar> 0();
    }
}


// ************************************************************************* //
