/*--------------------------------*- C++ -*----------------------------------*\
| =========                 |                                                 |
| \\      /  F ield         | OpenFOAM: The Open Source CFD Toolbox           |
|  \\    /   O peration     | Version:  2212                                  |
|   \\  /    A nd           | Website:  www.openfoam.com                      |
|    \\/     M anipulation  |                                                 |
\*---------------------------------------------------------------------------*/
FoamFile
{
    version     2.0;
    format      ascii;
    arch        "LSB;label=32;scalar=64";
    class       volScalarField;
    location    "3.705";
    object      p;
}
// * * * * * * * * * * * * * * * * * * * * * * * * * * * * * * * * * * * * * //

dimensions      [0 2 -2 0 0 0 0];

internalField   nonuniform List<scalar> 
400
(
2.48322e-10
-0.000149427
-0.00052713
-0.00105625
-0.00170735
-0.00245621
-0.00313699
-0.00354363
-0.00350951
-0.0028818
-0.00150875
0.000637593
0.0032485
0.0055107
0.00655512
0.00599239
0.0041192
0.00229374
0.00125938
0.00118552
0.000116398
-5.56789e-05
-0.000368902
-0.000751182
-0.00122557
-0.00185945
-0.00266158
-0.00348103
-0.00400458
-0.00386158
-0.00278207
-0.000782122
0.00171228
0.00398044
0.00516662
0.0048284
0.00323741
0.00152772
0.000748172
0.000831054
0.000528286
0.000262998
-7.29551e-05
-0.000548192
-0.00132223
-0.00253082
-0.00413457
-0.00586137
-0.00725054
-0.00778146
-0.00711308
-0.00533294
-0.00278778
-0.000106306
0.00188469
0.00254465
0.00185762
0.000666487
-0.000229747
-0.00023571
0.00112699
0.000724084
0.000187661
-0.00075796
-0.00239678
-0.00482778
-0.00781837
-0.0108777
-0.013409
-0.0148567
-0.0148891
-0.0135449
-0.0110353
-0.00780935
-0.00456136
-0.00203371
-0.000699496
-0.000537509
-0.00111904
-0.00175127
0.00153156
0.000936772
-3.20752e-05
-0.00188393
-0.00489056
-0.00896654
-0.0135954
-0.0180647
-0.0217257
-0.0241174
-0.0249829
-0.0242025
-0.0218945
-0.0183393
-0.0139675
-0.00938046
-0.00536963
-0.00276551
-0.00202971
-0.00383754
0.00122595
0.000399828
-0.00119388
-0.00421518
-0.00879516
-0.0145305
-0.0205829
-0.0261016
-0.0304811
-0.0334077
-0.0347557
-0.0344265
-0.0324967
-0.0291053
-0.0243853
-0.0185503
-0.0121949
-0.00672282
-0.00421998
-0.0063239
-0.000108735
-0.00117802
-0.00345827
-0.0076334
-0.0136072
-0.0206131
-0.0275666
-0.0335906
-0.0381947
-0.0412215
-0.0426818
-0.0425974
-0.0410308
-0.0380436
-0.0336047
-0.0275897
-0.0201105
-0.0124021
-0.00764035
-0.0075685
-0.00247665
-0.00373219
-0.00659701
-0.0116594
-0.0185921
-0.0263309
-0.0336613
-0.0397664
-0.0442998
-0.0472307
-0.048653
-0.0486647
-0.0473424
-0.0447268
-0.0407588
-0.0351937
-0.0277618
-0.0189697
-0.0115617
-0.00781165
-0.0055093
-0.00684717
-0.0100903
-0.0156751
-0.0230955
-0.0311037
-0.0384542
-0.0444253
-0.0487909
-0.0515972
-0.0529729
-0.0530287
-0.0518383
-0.0494534
-0.0458723
-0.0409217
-0.034171
-0.0254347
-0.0163658
-0.00977407
-0.00864669
-0.00995767
-0.0133563
-0.0191155
-0.0266306
-0.034595
-0.0417941
-0.0475854
-0.0518104
-0.0545411
-0.0559024
-0.0559857
-0.0548542
-0.0525734
-0.0492126
-0.0447431
-0.0388298
-0.0309136
-0.0218807
-0.0140184
-0.0113703
-0.0125823
-0.0159281
-0.0215745
-0.0288934
-0.0366319
-0.0436354
-0.0492924
-0.0534525
-0.0561694
-0.0575446
-0.0576467
-0.0565262
-0.0542546
-0.0509619
-0.0467612
-0.0415667
-0.0347156
-0.0266899
-0.0187709
-0.0133899
-0.0144179
-0.0175424
-0.0228188
-0.0297046
-0.0370938
-0.0439124
-0.0495258
-0.0537196
-0.056495
-0.0579146
-0.0580278
-0.0568763
-0.0545336
-0.0511805
-0.0470445
-0.0423471
-0.0363938
-0.0295132
-0.0219759
-0.0146718
-0.0153677
-0.0180487
-0.0227375
-0.029004
-0.0359546
-0.0426082
-0.048268
-0.0525989
-0.0555112
-0.0570138
-0.0571334
-0.0559077
-0.053431
-0.0499102
-0.045636
-0.0411834
-0.0357134
-0.0297617
-0.0224933
-0.0153093
-0.015543
-0.0175146
-0.0213374
-0.0267861
-0.0332082
-0.0397037
-0.0454838
-0.0500568
-0.0532019
-0.0548519
-0.0550045
-0.0536815
-0.0510025
-0.0472184
-0.0427053
-0.0381001
-0.0327014
-0.0277454
-0.0199922
-0.0154301
-0.0151515
-0.0161377
-0.0187762
-0.0231786
-0.0289613
-0.035287
-0.0412473
-0.0461635
-0.0496485
-0.0515299
-0.0517526
-0.050354
-0.0474282
-0.0432941
-0.0383797
-0.0333578
-0.0278369
-0.0240519
-0.0142847
-0.0151538
-0.0144398
-0.0141337
-0.0152343
-0.0183715
-0.0234099
-0.0295481
-0.0357325
-0.0410814
-0.0450181
-0.0472458
-0.0476405
-0.0462273
-0.043075
-0.0385419
-0.0330797
-0.0274554
-0.0216292
-0.0181492
-0.00396255
-0.0145679
-0.0135458
-0.0116581
-0.0110223
-0.0128182
-0.0171018
-0.0230699
-0.0295103
-0.0353568
-0.0398441
-0.0425459
-0.0432425
-0.0419291
-0.0386408
-0.0336962
-0.0274809
-0.0207432
-0.0135472
-0.00718771
0.0156927
-0.014533
-0.0126275
-0.0086772
-0.00630555
-0.00694475
-0.0106631
-0.0165616
-0.0232901
-0.0296689
-0.0347725
-0.0380649
-0.0392061
-0.0381444
-0.0348875
-0.0295799
-0.0222542
-0.0131528
-0.00121568
0.0160389
0.0565131
-0.0117895
-0.0118539
-0.00584502
-0.00196205
-0.00193338
-0.00547059
-0.0114746
-0.0185208
-0.0253963
-0.031064
-0.0349574
-0.0366527
-0.036055
-0.032892
-0.0270118
-0.0176311
-0.00355502
0.0198241
0.059947
0.129198
-0.0294989
-0.0106888
-0.000780204
0.00284047
0.00222173
-0.00168505
-0.00796427
-0.0153248
-0.0225598
-0.0286074
-0.0328762
-0.0349198
-0.0346048
-0.0315162
-0.0250169
-0.012931
0.00904064
0.0505524
0.122199
0.225513
)
;

boundaryField
{
    movingWall
    {
        type            zeroGradient;
    }
    fixedWalls
    {
        type            zeroGradient;
    }
    frontAndBack
    {
        type            empty;
    }
}


// ************************************************************************* //
