/*--------------------------------*- C++ -*----------------------------------*\
| =========                 |                                                 |
| \\      /  F ield         | OpenFOAM: The Open Source CFD Toolbox           |
|  \\    /   O peration     | Version:  2212                                  |
|   \\  /    A nd           | Website:  www.openfoam.com                      |
|    \\/     M anipulation  |                                                 |
\*---------------------------------------------------------------------------*/
FoamFile
{
    version     2.0;
    format      ascii;
    arch        "LSB;label=32;scalar=64";
    class       volScalarField;
    location    "2.805";
    object      p;
}
// * * * * * * * * * * * * * * * * * * * * * * * * * * * * * * * * * * * * * //

dimensions      [0 2 -2 0 0 0 0];

internalField   nonuniform List<scalar> 
400
(
-4.59813e-10
-0.000144618
-0.000504401
-0.00101021
-0.00163369
-0.0023475
-0.00299963
-0.00338954
-0.00334894
-0.00272848
-0.00138681
0.000700505
0.00324561
0.00546853
0.00653022
0.00604371
0.00426758
0.00250603
0.00148829
0.00140524
0.000117216
-4.8148e-05
-0.00034539
-0.000713641
-0.00117154
-0.00177592
-0.00253339
-0.0033039
-0.00379156
-0.00364194
-0.0025928
-0.000651495
0.00177714
0.00400398
0.00520062
0.00492576
0.00342661
0.00176474
0.000993589
0.00105997
0.000505646
0.000257277
-6.09651e-05
-0.000514809
-0.00124914
-0.00239016
-0.00390453
-0.00553939
-0.00685932
-0.00736623
-0.00672393
-0.00499894
-0.00252488
9.49697e-05
0.00205923
0.00273487
0.00209255
0.000930338
4.02307e-05
1.77256e-05
0.00105939
0.000678251
0.000178437
-0.000707327
-0.00224535
-0.00453686
-0.00737292
-0.0102909
-0.0127199
-0.0141216
-0.0141646
-0.0128729
-0.0104482
-0.00731892
-0.00415691
-0.00169057
-0.000394743
-0.000255584
-0.000843834
-0.0014747
0.0014
0.000845127
-4.82585e-05
-0.00177022
-0.00458883
-0.00844133
-0.0128531
-0.017144
-0.0206828
-0.0230132
-0.0238758
-0.0231515
-0.0209428
-0.0175126
-0.0132767
-0.00882671
-0.0049441
-0.00244178
-0.00176085
-0.00353205
0.00106444
0.000296195
-0.00117166
-0.00398221
-0.00828525
-0.0137289
-0.0195269
-0.0248542
-0.0291111
-0.0319792
-0.0333283
-0.0330607
-0.0312358
-0.0279818
-0.023423
-0.0177685
-0.011606
-0.00631162
-0.0039099
-0.00598693
-0.000243036
-0.00123747
-0.00334195
-0.00723577
-0.0128657
-0.0195414
-0.0262291
-0.0320643
-0.0365515
-0.0395244
-0.0409889
-0.0409652
-0.0395065
-0.0366666
-0.0324071
-0.0265972
-0.0193437
-0.0118628
-0.00726703
-0.00727394
-0.0025225
-0.00369202
-0.00634451
-0.0110775
-0.0176294
-0.0250251
-0.0320917
-0.038013
-0.0424316
-0.0453075
-0.0467317
-0.0468004
-0.045587
-0.043127
-0.039354
-0.034012
-0.0268221
-0.0182856
-0.011117
-0.00753323
-0.00542895
-0.00667694
-0.00968883
-0.01492
-0.0219459
-0.0296122
-0.0367052
-0.0424961
-0.046746
-0.0494943
-0.0508682
-0.0509779
-0.0498961
-0.0476706
-0.0442938
-0.0395797
-0.0330801
-0.0246064
-0.015797
-0.00940469
-0.00844005
-0.00966211
-0.0128246
-0.0182243
-0.0253461
-0.0329755
-0.0399235
-0.0455369
-0.0496463
-0.0523186
-0.0536782
-0.0538152
-0.0527905
-0.0506672
-0.0475113
-0.0432837
-0.0376267
-0.0299677
-0.0211732
-0.013487
-0.0110702
-0.0121947
-0.0153096
-0.020604
-0.0275391
-0.0349496
-0.0417054
-0.047186
-0.0512317
-0.0538927
-0.0552692
-0.0554268
-0.0544116
-0.0522937
-0.0492016
-0.0452413
-0.0403053
-0.0337031
-0.0258885
-0.0181079
-0.0130423
-0.0139864
-0.0168927
-0.0218362
-0.0283541
-0.0354207
-0.0419904
-0.0474256
-0.0515048
-0.0542262
-0.0556503
-0.0558217
-0.054776
-0.0525856
-0.049429
-0.0455316
-0.0410939
-0.0353848
-0.0286911
-0.021259
-0.0143176
-0.0149451
-0.0174295
-0.0218133
-0.0277321
-0.0343638
-0.0407617
-0.0462354
-0.050447
-0.0533038
-0.0548116
-0.0549926
-0.0538769
-0.0515551
-0.0482329
-0.0442008
-0.0400142
-0.0347907
-0.0290003
-0.0218194
-0.0149748
-0.0151696
-0.0169808
-0.0205376
-0.0256651
-0.0317725
-0.0380013
-0.0435802
-0.0480215
-0.0511035
-0.0527558
-0.0529688
-0.051765
-0.0492514
-0.0456777
-0.0414189
-0.0370981
-0.0319523
-0.0271184
-0.019469
-0.0151295
-0.0148494
-0.0157307
-0.0181595
-0.0222787
-0.0277537
-0.033797
-0.0395322
-0.044295
-0.0477021
-0.0495801
-0.0498685
-0.0485933
-0.0458498
-0.0419498
-0.0373151
-0.0325999
-0.0273447
-0.0236588
-0.0140239
-0.014901
-0.0142167
-0.0138766
-0.0148458
-0.017754
-0.022498
-0.028336
-0.0342645
-0.0394295
-0.0432654
-0.0454765
-0.0459345
-0.044658
-0.0417113
-0.0374443
-0.0322972
-0.0270064
-0.0214596
-0.0181594
-0.00405357
-0.0143789
-0.0134067
-0.0115668
-0.0108969
-0.0125273
-0.0165344
-0.022185
-0.0283352
-0.0339607
-0.0383163
-0.0409806
-0.0417319
-0.0405601
-0.0375057
-0.0328639
-0.0270092
-0.0206531
-0.0137965
-0.00770003
0.0152066
-0.0144379
-0.0125842
-0.00875551
-0.00644893
-0.0069836
-0.0104457
-0.0160158
-0.0224252
-0.0285477
-0.0334867
-0.0367187
-0.0379063
-0.0369911
-0.0339681
-0.0289859
-0.0220688
-0.0134258
-0.00191787
0.0150498
0.0556545
-0.0117913
-0.0119372
-0.00613321
-0.00235917
-0.00224354
-0.00553305
-0.0112005
-0.0179052
-0.024496
-0.0299736
-0.0337843
-0.0355061
-0.0350405
-0.0321187
-0.0265902
-0.0176486
-0.00407419
0.0188362
0.0587274
0.128154
-0.029495
-0.0108678
-0.00118928
0.00232632
0.00179
-0.00187203
-0.00781286
-0.0148233
-0.0217604
-0.0276016
-0.0317716
-0.0338289
-0.0336378
-0.0307809
-0.0246113
-0.0129471
0.00851978
0.0495992
0.121084
0.224537
)
;

boundaryField
{
    movingWall
    {
        type            zeroGradient;
    }
    fixedWalls
    {
        type            zeroGradient;
    }
    frontAndBack
    {
        type            empty;
    }
}


// ************************************************************************* //
