/*--------------------------------*- C++ -*----------------------------------*\
| =========                 |                                                 |
| \\      /  F ield         | OpenFOAM: The Open Source CFD Toolbox           |
|  \\    /   O peration     | Version:  2212                                  |
|   \\  /    A nd           | Website:  www.openfoam.com                      |
|    \\/     M anipulation  |                                                 |
\*---------------------------------------------------------------------------*/
FoamFile
{
    version     2.0;
    format      ascii;
    arch        "LSB;label=32;scalar=64";
    class       volScalarField;
    location    "4.09";
    object      p;
}
// * * * * * * * * * * * * * * * * * * * * * * * * * * * * * * * * * * * * * //

dimensions      [0 2 -2 0 0 0 0];

internalField   nonuniform List<scalar> 
400
(
-1.20565e-08
-0.000150312
-0.000530647
-0.00106305
-0.00171804
-0.00247191
-0.00315676
-0.0035657
-0.00353232
-0.00290323
-0.00152528
0.0006297
0.00324892
0.00551361
0.00655062
0.00597151
0.0040812
0.00224577
0.00120958
0.00113754
0.000116034
-5.70724e-05
-0.000372582
-0.000756847
-0.00123355
-0.00187161
-0.00268011
-0.00350654
-0.00403511
-0.0038927
-0.00280835
-0.000799814
0.00170302
0.00397406
0.00515379
0.00480108
0.00319285
0.00147625
0.000696022
0.000781945
0.000530997
0.000263298
-7.5145e-05
-0.000553301
-0.00133289
-0.00255122
-0.00416829
-0.00590934
-0.00730957
-0.00784439
-0.00717177
-0.00538314
-0.0028279
-0.000139391
0.00185164
0.00250456
0.00180715
0.000610864
-0.000285819
-0.000288472
0.00113599
0.00073001
0.000188503
-0.000765445
-0.00241877
-0.00487078
-0.00788603
-0.0109694
-0.0135193
-0.0149763
-0.0150077
-0.013655
-0.0111317
-0.00789098
-0.00463124
-0.00209659
-0.000758869
-0.000594786
-0.00117593
-0.00180735
0.00155005
0.000949566
-2.99734e-05
-0.00190059
-0.00493548
-0.00904704
-0.0137135
-0.0182169
-0.0219041
-0.0243112
-0.0251797
-0.0243902
-0.0220639
-0.0184857
-0.0140895
-0.00947935
-0.00544802
-0.00282819
-0.00208413
-0.00389797
0.00124932
0.000414792
-0.00119725
-0.00425016
-0.00887376
-0.0146588
-0.0207598
-0.0263207
-0.0307322
-0.0336783
-0.0350315
-0.0346925
-0.0327411
-0.0293202
-0.0245663
-0.0186951
-0.0123037
-0.00680029
-0.0042804
-0.00639037
-8.89968e-05
-0.00116942
-0.00347604
-0.00769511
-0.0137259
-0.0207924
-0.0278027
-0.033875
-0.038516
-0.0415657
-0.043033
-0.0429389
-0.0413483
-0.0383262
-0.033845
-0.027784
-0.0202576
-0.0125047
-0.00771211
-0.00762731
-0.00247026
-0.00373897
-0.00663674
-0.0117526
-0.0187519
-0.0265588
-0.0339518
-0.0401103
-0.0446852
-0.0476429
-0.0490748
-0.0490777
-0.0477296
-0.0450739
-0.0410562
-0.0354368
-0.0279501
-0.019104
-0.0116482
-0.00786655
-0.00552291
-0.00687496
-0.0101552
-0.0157996
-0.0232922
-0.0313731
-0.0387902
-0.0448188
-0.0492299
-0.0520666
-0.0534542
-0.0535021
-0.0522848
-0.0498565
-0.04622
-0.0412084
-0.0343973
-0.0256024
-0.0164785
-0.00984617
-0.00868109
-0.0100065
-0.0134442
-0.0192658
-0.0268557
-0.0348948
-0.0421628
-0.048014
-0.0522869
-0.0550498
-0.0564242
-0.0565001
-0.0553413
-0.0530158
-0.0495969
-0.0450621
-0.0390846
-0.0311088
-0.022023
-0.0141231
-0.0114207
-0.0126472
-0.0160321
-0.0217409
-0.0291344
-0.0369478
-0.0440205
-0.049738
-0.0539465
-0.0566959
-0.0580842
-0.0581787
-0.057031
-0.0547146
-0.0513633
-0.047096
-0.0418352
-0.0349252
-0.0268518
-0.0189026
-0.0134488
-0.0144909
-0.0176529
-0.0229889
-0.0299467
-0.037409
-0.0442957
-0.0499688
-0.0542101
-0.057017
-0.0584491
-0.0585544
-0.0573759
-0.0549885
-0.0515776
-0.047375
-0.042611
-0.0365999
-0.0296772
-0.0221173
-0.0147324
-0.0154399
-0.0181548
-0.0228981
-0.0292317
-0.0362521
-0.0429717
-0.0486896
-0.0530667
-0.0560094
-0.0575236
-0.057635
-0.0563818
-0.0538609
-0.0502829
-0.0459423
-0.041423
-0.035896
-0.0299089
-0.0226227
-0.015367
-0.0156075
-0.0176065
-0.021476
-0.0269848
-0.0334722
-0.0400311
-0.0458678
-0.0504859
-0.0536607
-0.0553219
-0.055467
-0.0541154
-0.0513916
-0.0475498
-0.0429698
-0.0382956
-0.0328408
-0.02786
-0.0200868
-0.0154825
-0.0152045
-0.0162084
-0.0188827
-0.0233359
-0.0291782
-0.0355649
-0.0415811
-0.0465425
-0.0500571
-0.0519492
-0.0521625
-0.050737
-0.0477653
-0.043571
-0.0385872
-0.0334944
-0.0279168
-0.0241146
-0.0143229
-0.0151986
-0.0144801
-0.0141795
-0.0153016
-0.0184777
-0.0235692
-0.0297664
-0.0360071
-0.0414025
-0.0453703
-0.0476101
-0.0479964
-0.0465544
-0.0433537
-0.0387568
-0.0332211
-0.0275235
-0.0216401
-0.0181287
-0.0039302
-0.0146025
-0.0135727
-0.011677
-0.0110456
-0.0128676
-0.0171978
-0.0232235
-0.0297217
-0.0356173
-0.0401386
-0.042855
-0.0435448
-0.0422028
-0.0388629
-0.0338503
-0.0275557
-0.020738
-0.0134758
-0.00707152
0.0157982
-0.0145525
-0.0126392
-0.00866896
-0.00628491
-0.00693868
-0.0106977
-0.0166525
-0.0234402
-0.0298712
-0.035012
-0.038322
-0.0394577
-0.0383673
-0.0350611
-0.0296839
-0.0222726
-0.0130794
-0.00106241
0.0162383
0.0566817
-0.0117934
-0.0118461
-0.00580428
-0.00190108
-0.00188274
-0.00545735
-0.011517
-0.018624
-0.0255546
-0.0312628
-0.0351769
-0.0368705
-0.0362482
-0.0330362
-0.0270834
-0.0176135
-0.00343978
0.0200241
0.0601816
0.129393
-0.0295053
-0.010667
-0.000720629
0.00292013
0.0022923
-0.00165099
-0.00798538
-0.0154073
-0.0226989
-0.0287891
-0.0330813
-0.0351257
-0.034788
-0.031653
-0.0250866
-0.0129167
0.009151
0.0507399
0.12241
0.22569
)
;

boundaryField
{
    movingWall
    {
        type            zeroGradient;
    }
    fixedWalls
    {
        type            zeroGradient;
    }
    frontAndBack
    {
        type            empty;
    }
}


// ************************************************************************* //
