/*--------------------------------*- C++ -*----------------------------------*\
| =========                 |                                                 |
| \\      /  F ield         | OpenFOAM: The Open Source CFD Toolbox           |
|  \\    /   O peration     | Version:  2212                                  |
|   \\  /    A nd           | Website:  www.openfoam.com                      |
|    \\/     M anipulation  |                                                 |
\*---------------------------------------------------------------------------*/
FoamFile
{
    version     2.0;
    format      ascii;
    arch        "LSB;label=32;scalar=64";
    class       volScalarField;
    location    "2.565";
    object      p;
}
// * * * * * * * * * * * * * * * * * * * * * * * * * * * * * * * * * * * * * //

dimensions      [0 2 -2 0 0 0 0];

internalField   nonuniform List<scalar> 
400
(
-1.95077e-08
-0.000142439
-0.000492356
-0.000985521
-0.00159437
-0.00228925
-0.00292577
-0.00330692
-0.00326359
-0.00264862
-0.00132715
0.000722387
0.00322198
0.00541107
0.00647143
0.00602196
0.00430417
0.00258674
0.00158441
0.00149736
0.000118679
-4.34974e-05
-0.000332309
-0.000694125
-0.00114441
-0.00173304
-0.00246529
-0.00320805
-0.00367573
-0.00352307
-0.00249288
-0.000588986
0.00179452
0.00398678
0.00517861
0.00493438
0.00348978
0.00186347
0.00110227
0.00115969
0.000493134
0.000254943
-5.37337e-05
-0.000496555
-0.00120918
-0.00231256
-0.00377826
-0.00536519
-0.00665011
-0.00714501
-0.00651696
-0.00482494
-0.00239608
0.000181161
0.0021227
0.00280399
0.00218973
0.00105072
0.000168643
0.000136067
0.00102026
0.000652247
0.000174524
-0.000676213
-0.00215727
-0.00437401
-0.00713301
-0.00998478
-0.0123674
-0.013747
-0.0137934
-0.0125277
-0.0101488
-0.00707416
-0.00396167
-0.00152845
-0.000249326
-0.000117094
-0.000706485
-0.00133758
0.00132166
0.000791902
-5.47202e-05
-0.00170025
-0.00441589
-0.00815636
-0.0124705
-0.0166884
-0.0201781
-0.0224803
-0.0233353
-0.0226291
-0.0204617
-0.0170903
-0.0129231
-0.00854366
-0.0047264
-0.00227502
-0.00162205
-0.00337335
0.000967395
0.000235419
-0.00115514
-0.00384485
-0.00800308
-0.0133128
-0.0190111
-0.0242721
-0.0284858
-0.0313259
-0.0326617
-0.0324011
-0.0306054
-0.0274038
-0.022919
-0.017356
-0.011295
-0.00609464
-0.00374595
-0.00580674
-0.000325693
-0.00127388
-0.00327248
-0.00701077
-0.0124708
-0.0190106
-0.0256111
-0.0313938
-0.0358452
-0.0387887
-0.0402309
-0.040199
-0.0387542
-0.0359567
-0.03177
-0.0260608
-0.0189287
-0.0115729
-0.00706571
-0.00711074
-0.00255632
-0.00367381
-0.00620175
-0.0107589
-0.0171344
-0.0244065
-0.0314053
-0.0372884
-0.0416759
-0.044519
-0.0459098
-0.0459539
-0.044737
-0.0423058
-0.0385994
-0.0333597
-0.0262993
-0.0179085
-0.0108744
-0.00738342
-0.00539388
-0.00658882
-0.00946884
-0.0145175
-0.0213722
-0.0289329
-0.0359776
-0.041743
-0.0459661
-0.0486773
-0.0500067
-0.050076
-0.0489729
-0.0467602
-0.0434395
-0.0388241
-0.0324548
-0.0241344
-0.0154805
-0.00920852
-0.00833732
-0.00950823
-0.0125393
-0.0177586
-0.0247189
-0.0322586
-0.0391737
-0.0447718
-0.0488582
-0.0514908
-0.0527974
-0.0528805
-0.051818
-0.0496913
-0.046579
-0.0424434
-0.0369149
-0.0294071
-0.0207635
-0.013193
-0.0109186
-0.011994
-0.0149822
-0.0201027
-0.0268844
-0.0342132
-0.0409437
-0.0464155
-0.0504418
-0.0530628
-0.0543813
-0.0544756
-0.05341
-0.0512753
-0.0482162
-0.0443421
-0.0395333
-0.0330776
-0.0254013
-0.0177189
-0.0128676
-0.0137637
-0.0165517
-0.0213302
-0.0276987
-0.0346807
-0.0412215
-0.0466484
-0.0507103
-0.0533936
-0.054759
-0.0548635
-0.0537599
-0.0515457
-0.0484174
-0.0446056
-0.0402983
-0.0347339
-0.0281651
-0.0208137
-0.0141424
-0.0147296
-0.0171049
-0.0213326
-0.0271015
-0.0336352
-0.039989
-0.0454457
-0.0496391
-0.0524604
-0.0539132
-0.0540298
-0.0528591
-0.0505157
-0.0472251
-0.0432856
-0.03924
-0.0341662
-0.0284871
-0.0213764
-0.0148137
-0.0149848
-0.0167018
-0.0201132
-0.0250868
-0.0310756
-0.0372346
-0.0427779
-0.0471934
-0.0502412
-0.0518453
-0.052005
-0.050757
-0.0482348
-0.0447078
-0.0405588
-0.0363981
-0.0314137
-0.0266697
-0.0191013
-0.01499
-0.0147087
-0.0155237
-0.0178258
-0.0217906
-0.0271224
-0.0330608
-0.0387305
-0.0434507
-0.0468204
-0.0486574
-0.0489064
-0.0476104
-0.0448835
-0.0410576
-0.0365616
-0.0320324
-0.0269542
-0.0233484
-0.0138143
-0.0147908
-0.0141254
-0.0137595
-0.0146381
-0.0174033
-0.0219825
-0.027676
-0.0335
-0.0385961
-0.042385
-0.0445614
-0.0449989
-0.043728
-0.0408308
-0.0366749
-0.031704
-0.0266287
-0.0212754
-0.0181126
-0.0040762
-0.0143078
-0.0133696
-0.0115556
-0.0108499
-0.0123606
-0.0161898
-0.0216588
-0.0276627
-0.0331865
-0.0374784
-0.0401082
-0.0408532
-0.0397117
-0.0367418
-0.0322508
-0.0266149
-0.0205161
-0.0139015
-0.00800527
0.0149045
-0.0144251
-0.0126104
-0.00885753
-0.00657867
-0.00702403
-0.0103061
-0.0156693
-0.0218978
-0.0278867
-0.0327416
-0.0359332
-0.0371228
-0.0362562
-0.0333378
-0.0285329
-0.0218734
-0.0135488
-0.00235399
0.0143909
0.0550732
-0.0118401
-0.012052
-0.00638492
-0.00266487
-0.00246504
-0.00557023
-0.0110153
-0.017516
-0.0239507
-0.0293281
-0.0330907
-0.0348131
-0.0343997
-0.0315962
-0.0262671
-0.0176068
-0.0043839
0.0181795
0.0578843
0.127421
-0.0295511
-0.0110551
-0.00152606
0.0019398
0.00148559
-0.00199331
-0.00770786
-0.0145052
-0.0212747
-0.0270052
-0.0311189
-0.0331721
-0.0330313
-0.030289
-0.0243067
-0.0129136
0.00819602
0.0489513
0.120301
0.223838
)
;

boundaryField
{
    movingWall
    {
        type            zeroGradient;
    }
    fixedWalls
    {
        type            zeroGradient;
    }
    frontAndBack
    {
        type            empty;
    }
}


// ************************************************************************* //
