/*--------------------------------*- C++ -*----------------------------------*\
| =========                 |                                                 |
| \\      /  F ield         | OpenFOAM: The Open Source CFD Toolbox           |
|  \\    /   O peration     | Version:  2212                                  |
|   \\  /    A nd           | Website:  www.openfoam.com                      |
|    \\/     M anipulation  |                                                 |
\*---------------------------------------------------------------------------*/
FoamFile
{
    version     2.0;
    format      ascii;
    arch        "LSB;label=32;scalar=64";
    class       volScalarField;
    location    "2.535";
    object      p;
}
// * * * * * * * * * * * * * * * * * * * * * * * * * * * * * * * * * * * * * //

dimensions      [0 2 -2 0 0 0 0];

internalField   nonuniform List<scalar> 
400
(
1.8714e-06
-0.00582681
-0.012965
-0.0184175
-0.0204352
-0.0182417
-0.0117772
-0.00148697
0.0118342
0.0271461
0.0432415
0.0588203
0.0725761
0.0833059
0.0900503
0.0922644
0.0900232
0.0842412
0.076878
0.0710644
0.00577928
-0.000220197
-0.00580629
-0.00954514
-0.0106017
-0.00843565
-0.00297299
0.00547101
0.0162997
0.0287086
0.0417468
0.0543831
0.0655837
0.0744073
0.0801177
0.0823131
0.0810746
0.0770521
0.0712713
0.065315
0.0133333
0.00503156
-0.000997678
-0.0044257
-0.00527568
-0.00326681
0.00159936
0.00902451
0.0184989
0.0293462
0.0407624
0.0518667
0.0617657
0.0696337
0.0748044
0.0768754
0.0758389
0.0720831
0.0658026
0.0575325
0.0201375
0.0086938
0.00122348
-0.00267112
-0.00372487
-0.00188819
0.00272831
0.00978153
0.0187773
0.0290919
0.0399889
0.050651
0.06023
0.0679131
0.0730004
0.0749987
0.073763
0.0694532
0.0616
0.0500994
0.0245
0.00977094
0.000587419
-0.00398946
-0.00530495
-0.0035102
0.00117178
0.00833154
0.0174589
0.027946
0.0390819
0.0500669
0.0600459
0.0681621
0.0736235
0.0757949
0.0743661
0.0692868
0.0595225
0.0445339
0.0251758
0.00714784
-0.00380435
-0.00905968
-0.0105148
-0.00850277
-0.00335973
0.00442644
0.0143103
0.025676
0.0378107
0.0499002
0.061045
0.0703001
0.0767316
0.0795139
0.0781359
0.0723305
0.0605362
0.0418868
0.0210913
-0.000264641
-0.0129369
-0.0187118
-0.0200324
-0.0174166
-0.0113212
-0.00232263
0.00898744
0.0219732
0.0359066
0.0499413
0.0631091
0.0743422
0.0825188
0.0865664
0.0857177
0.0794441
0.0656173
0.0430685
0.0111405
-0.0136206
-0.0278775
-0.0338567
-0.034606
-0.0308601
-0.0232156
-0.012348
0.00110191
0.0164809
0.0330495
0.0499306
0.0660804
0.0802869
0.0911977
0.097427
0.0978673
0.091633
0.0758932
0.0491134
-0.00596963
-0.034269
-0.0498726
-0.0555511
-0.0550926
-0.0495171
-0.0395962
-0.0261161
-0.00975997
0.00882007
0.028898
0.0495905
0.0697946
0.0881516
0.103045
0.112698
0.115548
0.110189
0.0928313
0.0614084
-0.0318597
-0.0638787
-0.0804195
-0.0850098
-0.0824227
-0.0740809
-0.0609835
-0.0440393
-0.0239543
-0.00133974
0.0231427
0.0486581
0.0740927
0.0979694
0.118393
0.133123
0.139986
0.136815
0.118438
0.0819309
-0.06867
-0.104606
-0.121347
-0.123593
-0.117518
-0.105129
-0.0877208
-0.0663281
-0.0416397
-0.0141583
0.0156028
0.0469504
0.078853
0.109791
0.137621
0.159583
0.172724
0.173775
0.155518
0.113568
-0.119405
-0.15936
-0.174917
-0.17276
-0.16115
-0.142931
-0.119761
-0.0927795
-0.06258
-0.0294502
0.0063705
0.0444708
0.0840525
0.1237
0.161134
0.193083
0.215666
0.224074
0.208048
0.16063
-0.188631
-0.232244
-0.243941
-0.23395
-0.213697
-0.187157
-0.156375
-0.122503
-0.0859002
-0.0464745
-0.00401683
0.0415364
0.0898397
0.139827
0.189316
0.234687
0.271072
0.291662
0.28174
0.229773
-0.283977
-0.329307
-0.331834
-0.308282
-0.274711
-0.236442
-0.195766
-0.153612
-0.109842
-0.0637472
-0.0144399
0.0388614
0.0965522
0.158275
0.222372
0.285286
0.341395
0.381573
0.384912
0.331832
-0.41932
-0.459673
-0.442352
-0.395794
-0.342131
-0.287741
-0.234617
-0.182931
-0.131611
-0.0789865
-0.0232155
0.0374738
0.104552
0.178836
0.25986
0.344969
0.428615
0.499698
0.529673
0.48539
-0.620533
-0.636745
-0.578678
-0.494194
-0.411241
-0.335659
-0.267781
-0.205979
-0.147537
-0.089384
-0.0284271
0.0383473
0.113806
0.200471
0.299974
0.412024
0.533028
0.651774
0.732771
0.722394
-0.935925
-0.878516
-0.741742
-0.597949
-0.474393
-0.37266
-0.288869
-0.217763
-0.153954
-0.0924645
-0.0287179
0.0416951
0.123263
0.220717
0.338925
0.482154
0.651996
0.841341
1.01527
1.0975
-1.47642
-1.20663
-0.920504
-0.691388
-0.517305
-0.387544
-0.290061
-0.213337
-0.148124
-0.0872159
-0.024578
0.045457
0.128937
0.23307
0.367103
0.542678
0.771293
1.05932
1.40329
1.73014
-2.53965
-1.63055
-1.04444
-0.710959
-0.495751
-0.352093
-0.254531
-0.183583
-0.126169
-0.0735954
-0.0192694
0.0427864
0.119212
0.218782
0.354812
0.547983
0.826392
1.23658
1.91168
2.92419
-4.36666
-2.04463
-0.973542
-0.563181
-0.357846
-0.240147
-0.170119
-0.123783
-0.0874815
-0.0535106
-0.0166549
0.0276602
0.0846069
0.161729
0.272411
0.442098
0.718218
1.22571
2.41103
4.84853
)
;

boundaryField
{
    movingWall
    {
        type            zeroGradient;
    }
    fixedWalls
    {
        type            zeroGradient;
    }
    frontAndBack
    {
        type            empty;
    }
}


// ************************************************************************* //
