/*--------------------------------*- C++ -*----------------------------------*\
| =========                 |                                                 |
| \\      /  F ield         | OpenFOAM: The Open Source CFD Toolbox           |
|  \\    /   O peration     | Version:  2212                                  |
|   \\  /    A nd           | Website:  www.openfoam.com                      |
|    \\/     M anipulation  |                                                 |
\*---------------------------------------------------------------------------*/
FoamFile
{
    version     2.0;
    format      ascii;
    arch        "LSB;label=32;scalar=64";
    class       volScalarField;
    location    "2.39";
    object      p;
}
// * * * * * * * * * * * * * * * * * * * * * * * * * * * * * * * * * * * * * //

dimensions      [0 2 -2 0 0 0 0];

internalField   nonuniform List<scalar> 
400
(
-3.08107e-08
-0.000139962
-0.000478343
-0.000955638
-0.00154642
-0.00221856
-0.00283568
-0.00320467
-0.00315519
-0.00254199
-0.00123697
0.000777712
0.00323115
0.00537939
0.006424
0.00599309
0.00432037
0.00264126
0.00165562
0.00156668
0.000119855
-3.95516e-05
-0.000316809
-0.000669606
-0.00110952
-0.00167936
-0.00238255
-0.00309292
-0.00353602
-0.00337632
-0.00236174
-0.000492964
0.00184475
0.00399518
0.00516719
0.00493462
0.0035276
0.00193529
0.00118525
0.00123706
0.000476653
0.00025056
-4.65039e-05
-0.000474918
-0.00116157
-0.00222162
-0.00363195
-0.00516566
-0.00641342
-0.00689643
-0.00628227
-0.0046217
-0.00223787
0.00029139
0.00219667
0.00286448
0.00226114
0.00114008
0.000268429
0.000231113
0.000972542
0.000618701
0.000166627
-0.000643017
-0.00205784
-0.00418841
-0.00686165
-0.00964619
-0.0119898
-0.0133581
-0.0134154
-0.0121782
-0.00984449
-0.00682524
-0.00376776
-0.00137772
-0.000126036
-6.64425e-06
-0.000598186
-0.00122292
0.00122689
0.000724861
-6.90752e-05
-0.00162647
-0.00422225
-0.00783443
-0.0120459
-0.0162031
-0.0196699
-0.0219733
-0.0228431
-0.0221659
-0.0200393
-0.0167181
-0.0126084
-0.00829082
-0.00453414
-0.00213113
-0.00150394
-0.00323494
0.000848363
0.00015635
-0.00114775
-0.00369802
-0.00768776
-0.0128475
-0.0184534
-0.0236821
-0.0279032
-0.0307674
-0.0321307
-0.0318991
-0.0301321
-0.026964
-0.0225232
-0.0170187
-0.0110302
-0.00590333
-0.00359785
-0.00564882
-0.000432261
-0.00132947
-0.00320955
-0.00676829
-0.0120313
-0.018425
-0.0249626
-0.0307486
-0.035235
-0.0382175
-0.03969
-0.0396794
-0.0382513
-0.0354736
-0.0313188
-0.0256599
-0.0185987
-0.011326
-0.00688378
-0.00696562
-0.00261169
-0.00367188
-0.00605985
-0.0104144
-0.0165859
-0.0237313
-0.0306996
-0.0366138
-0.0410516
-0.0439381
-0.0453562
-0.0454127
-0.0442012
-0.0417787
-0.0380946
-0.032899
-0.0259065
-0.0176037
-0.0106607
-0.00723983
-0.00537478
-0.00651138
-0.00924265
-0.0140806
-0.0207361
-0.0281909
-0.0352289
-0.0410406
-0.0453182
-0.0480696
-0.0494192
-0.0494931
-0.0483877
-0.0461771
-0.0428738
-0.0382989
-0.0319961
-0.0237661
-0.0152122
-0.00902351
-0.00824376
-0.00935848
-0.0122405
-0.0172499
-0.0240179
-0.0314635
-0.0383814
-0.0440282
-0.0481653
-0.0508311
-0.0521505
-0.0522323
-0.0511638
-0.0490374
-0.0459424
-0.0418481
-0.0363874
-0.0289713
-0.0204261
-0.0129344
-0.01077
-0.0117916
-0.014635
-0.0195504
-0.026143
-0.0333753
-0.0401017
-0.045613
-0.0496802
-0.0523262
-0.0536512
-0.0537407
-0.0526694
-0.0505378
-0.0475017
-0.0436758
-0.038941
-0.0325804
-0.025
-0.0173887
-0.0126914
-0.0135354
-0.0161869
-0.020768
-0.0269461
-0.0338155
-0.0403287
-0.045775
-0.0498637
-0.052563
-0.0539303
-0.05403
-0.0529264
-0.0507212
-0.047629
-0.0438793
-0.0396592
-0.034197
-0.0277227
-0.0204358
-0.0139628
-0.0145075
-0.0167568
-0.020796
-0.0263703
-0.032767
-0.0390585
-0.0445045
-0.0487057
-0.0515328
-0.0529849
-0.0531008
-0.0519381
-0.0496211
-0.0463851
-0.0425278
-0.0385897
-0.0336283
-0.0280413
-0.0209925
-0.0146469
-0.0147943
-0.0164049
-0.0196424
-0.0244188
-0.0302432
-0.0362993
-0.0417945
-0.0461927
-0.0492341
-0.0508361
-0.051002
-0.0497783
-0.0473053
-0.0438579
-0.0398174
-0.0357852
-0.0309283
-0.0262651
-0.0187704
-0.0148453
-0.014565
-0.015308
-0.017464
-0.0212393
-0.0263832
-0.032176
-0.0377542
-0.0424258
-0.0457737
-0.0476076
-0.0478732
-0.0466203
-0.0439691
-0.0402532
-0.0358958
-0.0315209
-0.0265828
-0.023052
-0.0136094
-0.0146785
-0.0140343
-0.0136431
-0.0144247
-0.0170255
-0.021405
-0.0269143
-0.0326015
-0.0376127
-0.0413596
-0.0435287
-0.0439919
-0.0427831
-0.0399889
-0.0359749
-0.0311751
-0.026281
-0.0210794
-0.0180366
-0.00406901
-0.0142401
-0.0133361
-0.0115528
-0.0108171
-0.0122019
-0.0158325
-0.0210878
-0.0269127
-0.0323124
-0.0365362
-0.0391476
-0.0399202
-0.0388529
-0.0360115
-0.0316931
-0.026264
-0.0203829
-0.0139619
-0.00823835
0.0146613
-0.0144207
-0.012645
-0.00897314
-0.00673534
-0.00709691
-0.0101904
-0.0153229
-0.0213401
-0.0271697
-0.0319284
-0.0350857
-0.0363006
-0.0355156
-0.0327313
-0.0281166
-0.0217
-0.0136492
-0.00271505
0.013833
0.0545668
-0.0119016
-0.0121754
-0.00665323
-0.00300459
-0.00273253
-0.00565051
-0.0108539
-0.0171218
-0.0233723
-0.0286313
-0.0323425
-0.0340779
-0.03374
-0.0310797
-0.0259636
-0.0175711
-0.00465736
0.0176071
0.0571423
0.126756
-0.0296126
-0.0112475
-0.00188021
0.00151802
0.00113449
-0.00215861
-0.0076286
-0.0141844
-0.0207575
-0.0263569
-0.0304084
-0.0324675
-0.0323976
-0.029792
-0.0240079
-0.0128765
0.0079031
0.0483676
0.11959
0.223187
)
;

boundaryField
{
    movingWall
    {
        type            zeroGradient;
    }
    fixedWalls
    {
        type            zeroGradient;
    }
    frontAndBack
    {
        type            empty;
    }
}


// ************************************************************************* //
