/*--------------------------------*- C++ -*----------------------------------*\
| =========                 |                                                 |
| \\      /  F ield         | OpenFOAM: The Open Source CFD Toolbox           |
|  \\    /   O peration     | Version:  2212                                  |
|   \\  /    A nd           | Website:  www.openfoam.com                      |
|    \\/     M anipulation  |                                                 |
\*---------------------------------------------------------------------------*/
FoamFile
{
    version     2.0;
    format      ascii;
    arch        "LSB;label=32;scalar=64";
    class       surfaceScalarField;
    location    "2.98";
    object      phi;
}
// * * * * * * * * * * * * * * * * * * * * * * * * * * * * * * * * * * * * * //

dimensions      [0 3 -1 0 0 0 0];

oriented        oriented;

internalField   nonuniform List<scalar> 
760
(
1.44232e-07
-1.44232e-07
2.68594e-07
-1.24362e-07
2.79414e-07
-1.08202e-08
1.54606e-07
1.24808e-07
-1.40398e-07
2.95004e-07
-6.65435e-07
5.25037e-07
-1.45122e-06
7.85788e-07
-2.41888e-06
9.67652e-07
-3.37887e-06
9.59992e-07
-4.10661e-06
7.2774e-07
-4.43515e-06
3.28543e-07
-4.26823e-06
-1.6692e-07
-3.54394e-06
-7.2429e-07
-2.3707e-06
-1.17323e-06
-9.71225e-07
-1.39948e-06
2.89213e-07
-1.26044e-06
1.02954e-06
-7.40324e-07
9.93664e-07
3.58732e-08
4.46481e-07
5.47183e-07
4.46481e-07
1.06185e-07
-2.50417e-07
4.2062e-08
-6.02384e-08
-3.23007e-07
3.54249e-07
-1.07643e-06
8.78234e-07
-2.26332e-06
1.48189e-06
-3.81253e-06
2.07425e-06
-5.492e-06
2.46525e-06
-7.00206e-06
2.47772e-06
-8.1187e-06
2.07663e-06
-8.72779e-06
1.33683e-06
-8.77975e-06
3.80499e-07
-8.24851e-06
-6.98158e-07
-7.16454e-06
-1.80826e-06
-5.5585e-06
-2.77928e-06
-3.57019e-06
-3.38779e-06
-1.49718e-06
-3.33345e-06
1.41331e-07
-2.37883e-06
8.22663e-07
-6.45458e-07
5.09747e-07
8.60099e-07
9.56228e-07
-1.38639e-07
-1.11778e-07
-6.37814e-07
4.38937e-07
-1.59429e-06
1.31073e-06
-3.0501e-06
2.33404e-06
-4.89465e-06
3.32644e-06
-6.84997e-06
4.02958e-06
-8.6118e-06
4.22708e-06
-9.99707e-06
3.86298e-06
-1.09478e-05
3.02735e-06
-1.14533e-05
1.84234e-06
-1.14664e-05
3.93644e-07
-1.1029e-05
-1.1356e-06
-1.01261e-05
-2.71121e-06
-8.70389e-06
-4.20144e-06
-6.74172e-06
-5.34996e-06
-4.32789e-06
-5.74728e-06
-1.85354e-06
-4.85318e-06
-9.42989e-08
-2.4047e-06
2.88762e-07
4.77038e-07
1.24499e-06
-4.88566e-07
3.76789e-07
-1.5136e-06
1.46397e-06
-3.01284e-06
2.80998e-06
-4.90261e-06
4.2238e-06
-6.94289e-06
5.36673e-06
-8.83903e-06
5.92572e-06
-1.03881e-05
5.77616e-06
-1.1539e-05
5.01391e-06
-1.23153e-05
3.80361e-06
-1.27499e-05
2.27692e-06
-1.28303e-05
4.74066e-07
-1.26071e-05
-1.35877e-06
-1.20469e-05
-3.27138e-06
-1.10483e-05
-5.20007e-06
-9.4811e-06
-6.91718e-06
-7.22243e-06
-8.00594e-06
-4.31352e-06
-7.76209e-06
-1.35657e-06
-5.36165e-06
1.16324e-07
-9.95856e-07
1.36131e-06
-8.27997e-07
1.20479e-06
-2.26921e-06
2.90518e-06
-4.07016e-06
4.61092e-06
-6.05266e-06
6.20631e-06
-7.9503e-06
7.26436e-06
-9.54239e-06
7.51781e-06
-1.07447e-05
6.97844e-06
-1.15767e-05
5.84592e-06
-1.20972e-05
4.3241e-06
-1.23777e-05
2.55739e-06
-1.25047e-05
6.01136e-07
-1.24731e-05
-1.39043e-06
-1.22708e-05
-3.47367e-06
-1.18173e-05
-5.65354e-06
-1.09269e-05
-7.80757e-06
-9.31454e-06
-9.61833e-06
-6.68958e-06
-1.03871e-05
-3.158e-06
-8.89324e-06
-2.59596e-07
-3.89426e-06
1.10172e-06
-1.03694e-06
2.24172e-06
-2.66709e-06
4.53533e-06
-4.49512e-06
6.43895e-06
-6.30301e-06
8.0142e-06
-7.87257e-06
8.83393e-06
-9.06843e-06
8.71367e-06
-9.8775e-06
7.78751e-06
-1.03592e-05
6.32763e-06
-1.06016e-05
4.5665e-06
-1.07048e-05
2.66056e-06
-1.07891e-05
6.85458e-07
-1.08523e-05
-1.32723e-06
-1.09044e-05
-3.42161e-06
-1.09145e-05
-5.64337e-06
-1.07265e-05
-7.99563e-06
-1.00118e-05
-1.0333e-05
-8.28234e-06
-1.21165e-05
-5.13692e-06
-1.20387e-05
-1.13482e-06
-7.89635e-06
-3.31047e-08
-1.05635e-06
3.29807e-06
-2.63979e-06
6.11877e-06
-4.2836e-06
8.08277e-06
-5.78223e-06
9.51282e-06
-6.9771e-06
1.00288e-05
-7.79884e-06
9.5354e-06
-8.27652e-06
8.26519e-06
-8.49256e-06
6.54368e-06
-8.54986e-06
4.62379e-06
-8.54841e-06
2.65911e-06
-8.57527e-06
7.12322e-07
-8.65507e-06
-1.24744e-06
-8.80612e-06
-3.27056e-06
-9.03839e-06
-5.41109e-06
-9.29009e-06
-7.74393e-06
-9.32293e-06
-1.03001e-05
-8.61554e-06
-1.28239e-05
-6.42367e-06
-1.42305e-05
-2.37027e-06
-1.19498e-05
-2.40338e-06
-8.886e-07
4.18667e-06
-2.24622e-06
7.47638e-06
-3.59191e-06
9.42847e-06
-4.744e-06
1.06649e-05
-5.59964e-06
1.08844e-05
-6.13513e-06
1.00709e-05
-6.40075e-06
8.53082e-06
-6.4846e-06
6.62752e-06
-6.48443e-06
4.62363e-06
-6.4778e-06
2.65248e-06
-6.50588e-06
7.404e-07
-6.58794e-06
-1.16538e-06
-6.74654e-06
-3.11196e-06
-7.0128e-06
-5.14483e-06
-7.40092e-06
-7.3558e-06
-7.81148e-06
-9.88958e-06
-7.82436e-06
-1.2811e-05
-6.62272e-06
-1.54322e-05
-3.51167e-06
-1.50608e-05
-5.91505e-06
-5.92243e-07
4.77892e-06
-1.6147e-06
8.49884e-06
-2.618e-06
1.04318e-05
-3.43705e-06
1.1484e-05
-4.01352e-06
1.14609e-05
-4.35236e-06
1.04097e-05
-4.50815e-06
8.6866e-06
-4.55843e-06
6.67781e-06
-4.57805e-06
4.64324e-06
-4.6148e-06
2.68924e-06
-4.68138e-06
8.06978e-07
-4.78468e-06
-1.06208e-06
-4.93642e-06
-2.96022e-06
-5.16745e-06
-4.9138e-06
-5.53464e-06
-6.98862e-06
-6.04709e-06
-9.37713e-06
-6.47187e-06
-1.23863e-05
-6.05845e-06
-1.58456e-05
-3.87005e-06
-1.72492e-05
-9.7851e-06
-2.19247e-07
4.99816e-06
-8.54813e-07
9.13441e-06
-1.5072e-06
1.10842e-05
-2.02289e-06
1.19996e-05
-2.37146e-06
1.18095e-05
-2.57428e-06
1.06126e-05
-2.67811e-06
8.79043e-06
-2.73672e-06
6.73641e-06
-2.79705e-06
4.70357e-06
-2.88328e-06
2.77547e-06
-2.99833e-06
9.2202e-07
-3.14121e-06
-9.19198e-07
-3.31307e-06
-2.78836e-06
-3.52874e-06
-4.69812e-06
-3.8449e-06
-6.67246e-06
-4.34496e-06
-8.87708e-06
-4.9642e-06
-1.1767e-05
-5.08314e-06
-1.57267e-05
-3.52942e-06
-1.88029e-05
-1.33145e-05
1.56051e-07
4.84211e-06
-6.75775e-08
9.35803e-06
-3.90506e-07
1.14071e-05
-6.33779e-07
1.22429e-05
-7.80983e-07
1.19567e-05
-8.61957e-07
1.06935e-05
-9.16653e-07
8.84513e-06
-9.78431e-07
6.79819e-06
-1.06502e-06
4.79016e-06
-1.18406e-06
2.89452e-06
-1.33675e-06
1.07471e-06
-1.52426e-06
-7.31687e-07
-1.74572e-06
-2.5669e-06
-2.00119e-06
-4.44266e-06
-2.32328e-06
-6.35037e-06
-2.81241e-06
-8.38795e-06
-3.52613e-06
-1.10533e-05
-4.00811e-06
-1.52447e-05
-3.0136e-06
-1.97974e-05
-1.63281e-05
4.738e-07
4.36831e-06
6.62738e-07
9.1691e-06
7.03596e-07
1.13662e-05
7.40278e-07
1.22062e-05
7.89793e-07
1.19072e-05
8.2503e-07
1.06583e-05
8.23684e-07
8.84648e-06
7.76155e-07
6.84572e-06
6.84299e-07
4.88201e-06
5.51396e-07
3.02742e-06
3.74337e-07
1.25176e-06
1.47261e-07
-5.04611e-07
-1.32282e-07
-2.28736e-06
-4.70985e-07
-4.10396e-06
-8.77183e-07
-5.94417e-06
-1.40423e-06
-7.8609e-06
-2.20081e-06
-1.02567e-05
-2.96176e-06
-1.44837e-05
-2.46553e-06
-2.02937e-05
-1.87937e-05
7.11705e-07
3.65661e-06
1.28286e-06
8.59794e-06
1.66166e-06
1.09874e-05
1.98468e-06
1.18832e-05
2.2582e-06
1.16337e-05
2.44797e-06
1.04685e-05
2.54167e-06
8.75278e-06
2.54872e-06
6.83867e-06
2.48466e-06
4.94608e-06
2.35948e-06
3.15259e-06
2.16873e-06
1.44252e-06
1.89793e-06
-2.33817e-07
1.54535e-06
-1.93477e-06
1.10618e-06
-3.66479e-06
5.74532e-07
-5.41252e-06
-1.07263e-07
-7.1791e-06
-9.86246e-07
-9.37774e-06
-1.95287e-06
-1.35171e-05
-1.94146e-06
-2.03051e-05
-2.07351e-05
8.16219e-07
2.84039e-06
1.7111e-06
7.70306e-06
2.42519e-06
1.02733e-05
3.04993e-06
1.12585e-05
3.59017e-06
1.10934e-05
3.9988e-06
1.00599e-05
4.25541e-06
8.49617e-06
4.37219e-06
6.72189e-06
4.37359e-06
4.94467e-06
4.27716e-06
3.24903e-06
4.08225e-06
1.63743e-06
3.7685e-06
7.99305e-08
3.33631e-06
-1.50258e-06
2.77098e-06
-3.09946e-06
2.07061e-06
-4.71214e-06
1.24884e-06
-6.35734e-06
2.08448e-07
-8.33735e-06
-1.0106e-06
-1.2298e-05
-1.45233e-06
-1.98633e-05
-2.21874e-05
7.5312e-07
2.08727e-06
1.83992e-06
6.61626e-06
2.84046e-06
9.2728e-06
3.78588e-06
1.03131e-05
4.64541e-06
1.02339e-05
5.34992e-06
9.35539e-06
5.85611e-06
7.98998e-06
6.16459e-06
6.41341e-06
6.29726e-06
4.812e-06
6.27504e-06
3.27125e-06
6.10013e-06
1.81234e-06
5.76216e-06
4.17901e-07
5.24087e-06
-9.8129e-07
4.53515e-06
-2.39374e-06
3.63781e-06
-3.81481e-06
2.57742e-06
-5.29694e-06
1.30504e-06
-7.06497e-06
-2.03203e-07
-1.07898e-05
-9.49475e-07
-1.91171e-05
-2.31369e-05
5.36923e-07
1.55034e-06
1.64926e-06
5.50393e-06
2.92973e-06
7.99233e-06
4.23443e-06
9.00836e-06
5.46736e-06
9.00093e-06
6.52817e-06
8.29458e-06
7.3478e-06
7.17035e-06
7.91063e-06
5.85058e-06
8.2289e-06
4.49373e-06
8.32133e-06
3.17882e-06
8.19547e-06
1.9382e-06
7.85001e-06
7.63354e-07
7.24241e-06
-3.73684e-07
6.38818e-06
-1.53951e-06
5.27445e-06
-2.70108e-06
3.94452e-06
-3.96701e-06
2.45705e-06
-5.5775e-06
8.6888e-07
-9.20162e-06
-1.86039e-07
-1.80621e-05
-2.3323e-05
1.28651e-07
1.42169e-06
9.50211e-07
4.68237e-06
2.36032e-06
6.58222e-06
4.02026e-06
7.34842e-06
5.69214e-06
7.32905e-06
7.19027e-06
6.79645e-06
8.40901e-06
5.95162e-06
9.31603e-06
4.94355e-06
9.90504e-06
3.90472e-06
1.01893e-05
2.89461e-06
1.0174e-05
1.95344e-06
9.86593e-06
1.07144e-06
9.23139e-06
2.6085e-07
8.27235e-06
-5.80467e-07
6.99354e-06
-1.42227e-06
5.44308e-06
-2.41654e-06
3.77658e-06
-3.91101e-06
2.15843e-06
-7.58348e-06
6.20917e-07
-1.65246e-05
-2.2702e-05
-5.00347e-07
1.92204e-06
1.63931e-07
4.01809e-06
1.63789e-06
5.10826e-06
3.61704e-06
5.36926e-06
5.69931e-06
5.24679e-06
7.60455e-06
4.89121e-06
9.19387e-06
4.36231e-06
1.04245e-05
3.71294e-06
1.12762e-05
3.05296e-06
1.17669e-05
2.40395e-06
1.19008e-05
1.81952e-06
1.16989e-05
1.27339e-06
1.11762e-05
7.83535e-07
1.03177e-05
2.7801e-07
9.12721e-06
-2.31777e-07
7.66646e-06
-9.55795e-07
6.12397e-06
-2.36852e-06
4.37804e-06
-5.83754e-06
2.02261e-06
-1.41692e-05
-2.06794e-05
-4.16176e-06
6.0838e-06
-3.63741e-06
3.49374e-06
-1.29881e-06
2.76967e-06
1.4255e-06
2.64495e-06
4.09179e-06
2.58049e-06
6.56243e-06
2.42057e-06
8.7296e-06
2.19513e-06
1.0534e-05
1.90853e-06
1.19575e-05
1.6295e-06
1.30251e-05
1.33631e-06
1.37532e-05
1.0914e-06
1.41846e-05
8.42025e-07
1.43099e-05
6.58198e-07
1.41432e-05
4.4474e-07
1.36646e-05
2.46843e-07
1.2889e-05
-1.80193e-07
1.18172e-05
-1.29677e-06
1.00673e-05
-4.08756e-06
5.61922e-06
-9.72117e-06
-1.50602e-05
6.0838e-06
9.57753e-06
1.23472e-05
1.49922e-05
1.75727e-05
1.99932e-05
2.21884e-05
2.40969e-05
2.57264e-05
2.70627e-05
2.81541e-05
2.89961e-05
2.96543e-05
3.0099e-05
3.03459e-05
3.01657e-05
2.88689e-05
2.47814e-05
1.50602e-05
)
;

boundaryField
{
    movingWall
    {
        type            calculated;
        value           uniform 0;
    }
    fixedWalls
    {
        type            calculated;
        value           uniform 0;
    }
    frontAndBack
    {
        type            empty;
        value           nonuniform List<scalar> 0();
    }
}


// ************************************************************************* //
