/*--------------------------------*- C++ -*----------------------------------*\
| =========                 |                                                 |
| \\      /  F ield         | OpenFOAM: The Open Source CFD Toolbox           |
|  \\    /   O peration     | Version:  2212                                  |
|   \\  /    A nd           | Website:  www.openfoam.com                      |
|    \\/     M anipulation  |                                                 |
\*---------------------------------------------------------------------------*/
FoamFile
{
    version     2.0;
    format      ascii;
    arch        "LSB;label=32;scalar=64";
    class       volScalarField;
    location    "4.99";
    object      p;
}
// * * * * * * * * * * * * * * * * * * * * * * * * * * * * * * * * * * * * * //

dimensions      [0 2 -2 0 0 0 0];

internalField   nonuniform List<scalar> 
400
(
4.34798e-07
-0.000149958
-0.000532495
-0.00106786
-0.00172644
-0.00248512
-0.00317391
-0.00358513
-0.00355251
-0.00292211
-0.00153939
0.000623907
0.00325072
0.00551666
0.00654464
0.00594745
0.00403895
0.00219303
0.00115486
0.00108456
0.00011676
-5.70558e-05
-0.000374637
-0.000760651
-0.00123934
-0.00188125
-0.0026959
-0.00352927
-0.0040629
-0.0039211
-0.00283198
-0.00081508
0.00169556
0.00396826
0.00513987
0.00477092
0.00314399
0.00142003
0.000638802
0.000727751
0.0005353
0.000265229
-7.56213e-05
-0.000556445
-0.00134125
-0.00256916
-0.00419973
-0.00595539
-0.00736697
-0.0079057
-0.00722869
-0.00543154
-0.0028665
-0.000171739
0.00181795
0.00246206
0.00175257
0.000550133
-0.000347574
-0.000346789
0.00114722
0.000738199
0.000191598
-0.000770616
-0.00243864
-0.00491239
-0.00795343
-0.011062
-0.0136313
-0.0150978
-0.015128
-0.0137665
-0.0112291
-0.00797345
-0.0047025
-0.00216203
-0.000822364
-0.00065762
-0.00123935
-0.0018698
0.00157228
0.000965923
-2.46408e-05
-0.00191481
-0.0049796
-0.00912908
-0.0138356
-0.0183754
-0.0220905
-0.0245138
-0.0253859
-0.0245864
-0.0222406
-0.0186378
-0.0142163
-0.00958272
-0.00553152
-0.00289706
-0.00214563
-0.00396604
0.00127817
0.00043481
-0.0011966
-0.00428351
-0.00895453
-0.0147938
-0.0209478
-0.0265546
-0.0310014
-0.0339693
-0.035329
-0.0349797
-0.0330047
-0.0295512
-0.02476
-0.01885
-0.0124209
-0.00688553
-0.00434894
-0.00646637
-6.24767e-05
-0.00115481
-0.00348994
-0.00775741
-0.0138516
-0.0209858
-0.0280592
-0.034186
-0.0388696
-0.0419473
-0.0434245
-0.0433211
-0.0417041
-0.0386419
-0.0341123
-0.0279989
-0.0204201
-0.0126189
-0.00779372
-0.00769559
-0.00245688
-0.00373997
-0.00667413
-0.0118503
-0.0189252
-0.0268098
-0.0342746
-0.040496
-0.0451219
-0.0481151
-0.0495624
-0.0495582
-0.0481809
-0.0454779
-0.0414004
-0.0357163
-0.0281652
-0.0192572
-0.0117477
-0.00793109
-0.00553077
-0.00689859
-0.0102206
-0.0159335
-0.0235104
-0.0316766
-0.039173
-0.0452726
-0.0497433
-0.0526233
-0.054032
-0.0540749
-0.0528264
-0.0503444
-0.0466385
-0.0415505
-0.0346652
-0.0257996
-0.0166103
-0.00993073
-0.00871194
-0.0100537
-0.0135363
-0.0194311
-0.0271106
-0.0352405
-0.0425939
-0.048523
-0.0528624
-0.0556748
-0.0570745
-0.0571471
-0.0559559
-0.0535721
-0.0500766
-0.0454564
-0.0393964
-0.0313452
-0.0221933
-0.014247
-0.0114699
-0.012713
-0.0161438
-0.0219274
-0.0294129
-0.0373203
-0.0444826
-0.0502827
-0.0545621
-0.0573646
-0.0587806
-0.0588728
-0.0576917
-0.0553141
-0.0518812
-0.0475226
-0.0421732
-0.0351857
-0.0270495
-0.0190609
-0.013508
-0.0145666
-0.0177736
-0.0231825
-0.0302312
-0.0377884
-0.0447668
-0.0505247
-0.0548387
-0.0577002
-0.0591609
-0.0592638
-0.0580508
-0.0555998
-0.0521041
-0.047806
-0.0429496
-0.0368605
-0.0298803
-0.0222892
-0.014794
-0.0155153
-0.0182715
-0.0230827
-0.0295027
-0.0366161
-0.043427
-0.0492297
-0.0536798
-0.0566768
-0.0582193
-0.0583275
-0.0570383
-0.0544518
-0.0507865
-0.0463469
-0.0417327
-0.036128
-0.0300916
-0.0227801
-0.0154258
-0.0156746
-0.0177072
-0.0216357
-0.0272228
-0.0337981
-0.040446
-0.0463662
-0.0510562
-0.0542842
-0.0559728
-0.0561149
-0.0547246
-0.0519327
-0.0480006
-0.043319
-0.0385461
-0.0330152
-0.0279994
-0.0201988
-0.0155358
-0.0152588
-0.0162843
-0.0190037
-0.0235227
-0.0294451
-0.0359169
-0.042015
-0.0470473
-0.050614
-0.0525313
-0.0527379
-0.0512754
-0.0482332
-0.0439448
-0.038856
-0.0336625
-0.0280093
-0.0241845
-0.0143607
-0.0152435
-0.0145199
-0.0142262
-0.0153744
-0.0185999
-0.0237609
-0.0300383
-0.0363594
-0.0418254
-0.0458451
-0.0481104
-0.0484905
-0.0470084
-0.0437344
-0.0390399
-0.0333952
-0.0275956
-0.0216383
-0.0180885
-0.00387616
-0.014636
-0.0135975
-0.0116925
-0.011065
-0.012918
-0.017306
-0.0234068
-0.0299842
-0.0359515
-0.0405264
-0.0432701
-0.0439551
-0.0425737
-0.0391581
-0.034045
-0.0276366
-0.0207104
-0.0133647
-0.00690869
0.0159445
-0.0145685
-0.0126471
-0.00865362
-0.00625236
-0.00692037
-0.0107264
-0.016751
-0.0236171
-0.0301211
-0.035318
-0.0386578
-0.0397901
-0.0386612
-0.0352849
-0.0298083
-0.0222779
-0.0129636
-0.000848377
0.0165028
0.0569043
-0.0117914
-0.0118333
-0.00575326
-0.00182219
-0.00181062
-0.00542592
-0.0115523
-0.0187375
-0.0257433
-0.0315104
-0.0354582
-0.0371543
-0.0365004
-0.0332209
-0.0271662
-0.0175742
-0.00327323
0.0202937
0.0604868
0.129645
-0.0295088
-0.0106402
-0.000648852
0.00302022
0.00238762
-0.00159464
-0.00799445
-0.0154945
-0.0228622
-0.0290137
-0.0333427
-0.0353929
-0.0350265
-0.0318282
-0.0251691
-0.0128853
0.00930739
0.0509909
0.122684
0.225918
)
;

boundaryField
{
    movingWall
    {
        type            zeroGradient;
    }
    fixedWalls
    {
        type            zeroGradient;
    }
    frontAndBack
    {
        type            empty;
    }
}


// ************************************************************************* //
