/*--------------------------------*- C++ -*----------------------------------*\
| =========                 |                                                 |
| \\      /  F ield         | OpenFOAM: The Open Source CFD Toolbox           |
|  \\    /   O peration     | Version:  2212                                  |
|   \\  /    A nd           | Website:  www.openfoam.com                      |
|    \\/     M anipulation  |                                                 |
\*---------------------------------------------------------------------------*/
FoamFile
{
    version     2.0;
    format      ascii;
    arch        "LSB;label=32;scalar=64";
    class       volVectorField;
    location    "1.405";
    object      U;
}
// * * * * * * * * * * * * * * * * * * * * * * * * * * * * * * * * * * * * * //

dimensions      [0 1 -1 0 0 0 0];

internalField   nonuniform List<vector> 
400
(
(0.000504901 -0.00061174 0)
(0.000858729 -0.000412061 0)
(0.000147417 -0.000149795 0)
(-0.00146139 0.000136966 0)
(-0.00435327 0.000615885 0)
(-0.00916277 0.0014001 0)
(-0.0164662 0.00255267 0)
(-0.0264043 0.0039741 0)
(-0.0381537 0.00520986 0)
(-0.0496077 0.00547959 0)
(-0.0578889 0.00416027 0)
(-0.0604669 0.00140935 0)
(-0.0558526 -0.00184111 0)
(-0.0437223 -0.00501228 0)
(-0.0266489 -0.00685685 0)
(-0.00771752 -0.00634013 0)
(0.00732751 -0.00365765 0)
(0.0132453 0.000959224 0)
(0.00950295 0.0035515 0)
(0.00278414 0.00278241 0)
(-0.000216829 -0.00074808 0)
(-0.00233056 0.00100683 0)
(-0.00719314 0.0027581 0)
(-0.0144344 0.0048725 0)
(-0.0249531 0.00796865 0)
(-0.0397555 0.0121313 0)
(-0.0589185 0.0167869 0)
(-0.0807787 0.0204961 0)
(-0.101868 0.0212191 0)
(-0.118149 0.0174461 0)
(-0.126575 0.00929729 0)
(-0.125655 -0.00155381 0)
(-0.115536 -0.0130721 0)
(-0.0962851 -0.0233839 0)
(-0.0700902 -0.0294419 0)
(-0.0396488 -0.0283159 0)
(-0.0100312 -0.018831 0)
(0.00959661 -0.00304269 0)
(0.0113564 0.00916207 0)
(0.00390986 0.00923217 0)
(-0.00142838 0.00182348 0)
(-0.00716422 0.00716176 0)
(-0.0173182 0.0118792 0)
(-0.0308629 0.0176913 0)
(-0.0489516 0.0255126 0)
(-0.0722329 0.0344853 0)
(-0.0994048 0.0422146 0)
(-0.127077 0.0454855 0)
(-0.151055 0.0416932 0)
(-0.168078 0.0303534 0)
(-0.176437 0.0131739 0)
(-0.175748 -0.00732085 0)
(-0.166359 -0.0287904 0)
(-0.148054 -0.0481821 0)
(-0.121127 -0.0613141 0)
(-0.0863297 -0.0630027 0)
(-0.0464741 -0.0485622 0)
(-0.00939322 -0.0190288 0)
(0.00730684 0.00957209 0)
(0.00368786 0.015629 0)
(-0.00278222 0.00758696 0)
(-0.0122889 0.018171 0)
(-0.0275726 0.0266288 0)
(-0.0467916 0.0369271 0)
(-0.0710732 0.0498552 0)
(-0.100374 0.0629067 0)
(-0.132153 0.0716496 0)
(-0.162212 0.0718051 0)
(-0.18672 0.0615747 0)
(-0.203636 0.042341 0)
(-0.212446 0.0168462 0)
(-0.213536 -0.0125134 0)
(-0.207425 -0.0433769 0)
(-0.193619 -0.0725563 0)
(-0.170843 -0.0955706 0)
(-0.137508 -0.105591 0)
(-0.0930033 -0.0938123 0)
(-0.0409494 -0.0541259 0)
(-4.62062e-05 -0.00130194 0)
(0.00427572 0.0197675 0)
(-0.00391659 0.0162602 0)
(-0.0165939 0.0334958 0)
(-0.0359901 0.0461437 0)
(-0.0594051 0.0611415 0)
(-0.0877691 0.078689 0)
(-0.120207 0.0941873 0)
(-0.153041 0.101514 0)
(-0.181645 0.0965423 0)
(-0.20309 0.0793708 0)
(-0.216965 0.0531391 0)
(-0.224176 0.0209059 0)
(-0.226014 -0.0152907 0)
(-0.223347 -0.0534562 0)
(-0.215654 -0.0911975 0)
(-0.201251 -0.125121 0)
(-0.176451 -0.148366 0)
(-0.137146 -0.148973 0)
(-0.0809146 -0.111193 0)
(-0.0153762 -0.0315901 0)
(0.00592884 0.0198613 0)
(-0.00452871 0.027063 0)
(-0.0191727 0.0518938 0)
(-0.0409644 0.068817 0)
(-0.0663267 0.0880873 0)
(-0.0957735 0.108973 0)
(-0.127531 0.124848 0)
(-0.157143 0.128805 0)
(-0.180306 0.117907 0)
(-0.19556 0.0943231 0)
(-0.204123 0.0624857 0)
(-0.208049 0.0257441 0)
(-0.209223 -0.013864 0)
(-0.20872 -0.0550233 0)
(-0.206597 -0.0971648 0)
(-0.201909 -0.139235 0)
(-0.190005 -0.176689 0)
(-0.164066 -0.197328 0)
(-0.116959 -0.178061 0)
(-0.046826 -0.0926171 0)
(0.00450546 0.0109477 0)
(-0.00439163 0.0387299 0)
(-0.0193542 0.0715866 0)
(-0.0413391 0.0924222 0)
(-0.065953 0.114862 0)
(-0.0932873 0.137329 0)
(-0.121047 0.151719 0)
(-0.14472 0.151144 0)
(-0.160989 0.134193 0)
(-0.16989 0.104859 0)
(-0.173635 0.0686088 0)
(-0.17448 0.0291818 0)
(-0.174116 -0.0112272 0)
(-0.173707 -0.0518591 0)
(-0.174327 -0.0935865 0)
(-0.176385 -0.137741 0)
(-0.176346 -0.18412 0)
(-0.166367 -0.224538 0)
(-0.136719 -0.234541 0)
(-0.0817123 -0.170383 0)
(-0.00549153 -0.0123164 0)
(-0.00344081 0.0497269 0)
(-0.0169396 0.0905637 0)
(-0.0369157 0.114674 0)
(-0.0584067 0.138906 0)
(-0.0812944 0.161342 0)
(-0.103334 0.173088 0)
(-0.120624 0.167716 0)
(-0.131105 0.14524 0)
(-0.135913 0.111091 0)
(-0.13748 0.0714248 0)
(-0.137486 0.0300616 0)
(-0.136736 -0.0109306 0)
(-0.135827 -0.0507511 0)
(-0.136244 -0.0899705 0)
(-0.139922 -0.131011 0)
(-0.146117 -0.178185 0)
(-0.148301 -0.230718 0)
(-0.135434 -0.268909 0)
(-0.0997628 -0.23873 0)
(-0.0240765 -0.059711 0)
(-0.00182404 0.0585328 0)
(-0.0123039 0.106846 0)
(-0.028515 0.133551 0)
(-0.045273 0.158301 0)
(-0.0624526 0.179617 0)
(-0.0783134 0.188479 0)
(-0.0899837 0.179044 0)
(-0.0965787 0.152405 0)
(-0.0997156 0.114883 0)
(-0.101431 0.0728811 0)
(-0.102505 0.0299478 0)
(-0.102732 -0.0121909 0)
(-0.102058 -0.0523935 0)
(-0.101607 -0.0899133 0)
(-0.104092 -0.126451 0)
(-0.111588 -0.168906 0)
(-0.120677 -0.224922 0)
(-0.1197 -0.284944 0)
(-0.0992766 -0.293646 0)
(-0.0333351 -0.133766 0)
(0.000110342 0.0639797 0)
(-0.00623471 0.118951 0)
(-0.0175056 0.147815 0)
(-0.0286633 0.172244 0)
(-0.0395925 0.192005 0)
(-0.0493174 0.198529 0)
(-0.05615 0.186486 0)
(-0.0600866 0.157525 0)
(-0.0626557 0.118299 0)
(-0.0651425 0.0751629 0)
(-0.0675437 0.0312808 0)
(-0.0691508 -0.0120197 0)
(-0.0696983 -0.0534077 0)
(-0.0696069 -0.0907894 0)
(-0.0711787 -0.123914 0)
(-0.0779196 -0.159672 0)
(-0.0905141 -0.212422 0)
(-0.0976396 -0.286103 0)
(-0.0905868 -0.331948 0)
(-0.0298059 -0.209108 0)
(0.00192534 0.0653089 0)
(0.000237073 0.125772 0)
(-0.00548281 0.156557 0)
(-0.0107715 0.180104 0)
(-0.0153406 0.198206 0)
(-0.0189678 0.2033 0)
(-0.0211513 0.19032 0)
(-0.0225508 0.160963 0)
(-0.0242882 0.121708 0)
(-0.0268678 0.0785693 0)
(-0.0298654 0.0344185 0)
(-0.0326857 -0.00958532 0)
(-0.0351732 -0.0519868 0)
(-0.0371691 -0.0900049 0)
(-0.0399659 -0.121419 0)
(-0.0466226 -0.151328 0)
(-0.0614027 -0.197395 0)
(-0.0738641 -0.277945 0)
(-0.0789752 -0.355476 0)
(-0.0228185 -0.271255 0)
(0.0033042 0.0627576 0)
(0.00617189 0.127147 0)
(0.00602803 0.15974 0)
(0.00645868 0.182254 0)
(0.00813192 0.198772 0)
(0.0106027 0.203289 0)
(0.0133646 0.190764 0)
(0.0152454 0.162557 0)
(0.0153903 0.124554 0)
(0.013803 0.0823086 0)
(0.011143 0.0386207 0)
(0.00752153 -0.00527787 0)
(0.00291774 -0.0474955 0)
(-0.00227426 -0.0851256 0)
(-0.00856262 -0.115668 0)
(-0.0172254 -0.141457 0)
(-0.0348713 -0.180196 0)
(-0.0511978 -0.262909 0)
(-0.0679662 -0.367811 0)
(-0.0152644 -0.323478 0)
(0.00389749 0.0571885 0)
(0.0105198 0.123269 0)
(0.0154895 0.157133 0)
(0.0211267 0.178224 0)
(0.0285968 0.192877 0)
(0.037028 0.197243 0)
(0.0451332 0.186418 0)
(0.051355 0.160909 0)
(0.0547044 0.125526 0)
(0.0551946 0.0852611 0)
(0.053453 0.0430404 0)
(0.0493572 0.00031851 0)
(0.0431417 -0.0405172 0)
(0.0344773 -0.0766249 0)
(0.0231085 -0.105728 0)
(0.0104565 -0.128275 0)
(-0.0111446 -0.160877 0)
(-0.0294162 -0.242477 0)
(-0.0578157 -0.370402 0)
(-0.00750748 -0.365844 0)
(0.00356294 0.0499722 0)
(0.0125107 0.115222 0)
(0.0217486 0.150002 0)
(0.0318661 0.169624 0)
(0.0443669 0.181945 0)
(0.0583494 0.185745 0)
(0.071944 0.176986 0)
(0.0831996 0.155148 0)
(0.0907489 0.123606 0)
(0.0942355 0.0865961 0)
(0.0940027 0.0472138 0)
(0.0899887 0.00738138 0)
(0.0821435 -0.0304183 0)
(0.070228 -0.0638824 0)
(0.0541587 -0.0907799 0)
(0.0361223 -0.110779 0)
(0.00940247 -0.138202 0)
(-0.00815926 -0.217903 0)
(-0.048641 -0.367393 0)
(0.000804006 -0.402429 0)
(0.00231034 0.0428674 0)
(0.0114307 0.104626 0)
(0.0231776 0.138108 0)
(0.0366834 0.155286 0)
(0.0532692 0.16473 0)
(0.0720968 0.167346 0)
(0.0909553 0.160442 0)
(0.107467 0.142829 0)
(0.11976 0.11641 0)
(0.126943 0.0844155 0)
(0.128843 0.0497823 0)
(0.125513 0.0147457 0)
(0.116457 -0.0184675 0)
(0.102012 -0.0477774 0)
(0.0817041 -0.0713785 0)
(0.0589632 -0.0894926 0)
(0.0274202 -0.11294 0)
(0.0127821 -0.191002 0)
(-0.0400009 -0.362198 0)
(0.0106694 -0.435288 0)
(0.000239507 0.037331 0)
(0.00757728 0.0942518 0)
(0.0204194 0.125737 0)
(0.0363148 0.140052 0)
(0.0558683 0.14593 0)
(0.0782045 0.146247 0)
(0.10115 0.139989 0)
(0.122111 0.125937 0)
(0.138787 0.104856 0)
(0.149795 0.0789029 0)
(0.154285 0.0504946 0)
(0.152382 0.0217772 0)
(0.143049 -0.00547935 0)
(0.127355 -0.029195 0)
(0.104161 -0.0484262 0)
(0.0783821 -0.0645045 0)
(0.0436749 -0.0864024 0)
(0.032551 -0.164956 0)
(-0.0308405 -0.357899 0)
(0.0243867 -0.463867 0)
(-0.00300213 0.0388743 0)
(-0.00238797 0.0857758 0)
(0.00835176 0.107541 0)
(0.0269476 0.117077 0)
(0.0500183 0.11999 0)
(0.0758862 0.118739 0)
(0.102354 0.11324 0)
(0.12702 0.102673 0)
(0.147439 0.087288 0)
(0.161991 0.0683093 0)
(0.169248 0.0475899 0)
(0.169233 0.0266955 0)
(0.160747 0.00717178 0)
(0.145889 -0.00990939 0)
(0.1218 -0.0239533 0)
(0.0963426 -0.0381709 0)
(0.0612425 -0.0610792 0)
(0.0522064 -0.14154 0)
(-0.0149816 -0.349031 0)
(0.0468955 -0.478173 0)
(-0.00654456 0.0301136 0)
(-0.0080563 0.0868416 0)
(-0.00126733 0.102608 0)
(0.017075 0.102561 0)
(0.0417739 0.0991051 0)
(0.0693622 0.0946092 0)
(0.097581 0.0887799 0)
(0.124011 0.080527 0)
(0.146588 0.0699669 0)
(0.163828 0.0573249 0)
(0.173734 0.044099 0)
(0.177466 0.0309117 0)
(0.172003 0.0193292 0)
(0.162682 0.00889806 0)
(0.142504 -2.47386e-05 0)
(0.125708 -0.012975 0)
(0.0927425 -0.0396244 0)
(0.0843101 -0.124447 0)
(0.0255893 -0.320024 0)
(0.0879365 -0.451188 0)
(-0.100727 0.0908241 0)
(-0.0747216 0.0737767 0)
(-0.0551652 0.0637766 0)
(-0.0182358 0.0603438 0)
(0.0188085 0.0574088 0)
(0.0562644 0.0542223 0)
(0.0919403 0.0507546 0)
(0.126494 0.0462424 0)
(0.15573 0.041212 0)
(0.183267 0.0351986 0)
(0.201539 0.0293887 0)
(0.219579 0.0235328 0)
(0.224507 0.0189303 0)
(0.233495 0.0147037 0)
(0.223786 0.010653 0)
(0.225676 0.00167893 0)
(0.19502 -0.02274 0)
(0.196115 -0.0874927 0)
(0.142261 -0.228363 0)
(0.168981 -0.340792 0)
(0.133301 0.106804 0)
(0.165686 0.0821529 0)
(0.223172 0.0603854 0)
(0.279739 0.0470982 0)
(0.326236 0.0391321 0)
(0.369702 0.0334544 0)
(0.405272 0.029503 0)
(0.442674 0.025881 0)
(0.470419 0.023305 0)
(0.5027 0.0203276 0)
(0.521261 0.0184428 0)
(0.548061 0.0157179 0)
(0.556041 0.014606 0)
(0.577886 0.0121054 0)
(0.573105 0.0116788 0)
(0.587424 0.00759182 0)
(0.557152 0.00293803 0)
(0.544133 -0.0159766 0)
(0.438496 -0.0489904 0)
(0.339108 -0.100678 0)
)
;

boundaryField
{
    movingWall
    {
        type            fixedValue;
        value           uniform (1 0 0);
    }
    fixedWalls
    {
        type            noSlip;
    }
    frontAndBack
    {
        type            empty;
    }
}


// ************************************************************************* //
