/*--------------------------------*- C++ -*----------------------------------*\
| =========                 |                                                 |
| \\      /  F ield         | OpenFOAM: The Open Source CFD Toolbox           |
|  \\    /   O peration     | Version:  2212                                  |
|   \\  /    A nd           | Website:  www.openfoam.com                      |
|    \\/     M anipulation  |                                                 |
\*---------------------------------------------------------------------------*/
FoamFile
{
    version     2.0;
    format      ascii;
    arch        "LSB;label=32;scalar=64";
    class       volScalarField;
    location    "1.24";
    object      p;
}
// * * * * * * * * * * * * * * * * * * * * * * * * * * * * * * * * * * * * * //

dimensions      [0 2 -2 0 0 0 0];

internalField   nonuniform List<scalar> 
400
(
3.19291e-06
-0.00582457
-0.0129626
-0.0184151
-0.0204328
-0.0182391
-0.0117746
-0.00148439
0.0118367
0.0271486
0.0432439
0.0588227
0.0725785
0.0833085
0.0900529
0.092267
0.0900257
0.0842437
0.0768804
0.0710668
0.00578152
-0.000217784
-0.00580383
-0.00954269
-0.0105993
-0.00843321
-0.00297049
0.00547356
0.0163023
0.0287112
0.0417493
0.0543856
0.0655862
0.0744098
0.0801202
0.0823157
0.0810772
0.0770546
0.0712738
0.0653175
0.0133357
0.00503403
-0.000995178
-0.0044232
-0.00527323
-0.0032644
0.00160179
0.009027
0.0185015
0.0293488
0.040765
0.0518692
0.0617682
0.0696361
0.0748068
0.0768779
0.0758415
0.0720857
0.0658051
0.057535
0.0201399
0.00869627
0.001226
-0.00266857
-0.00372236
-0.00188575
0.00273071
0.00978395
0.0187798
0.0290945
0.0399915
0.0506536
0.0602325
0.0679156
0.0730028
0.0750012
0.0737655
0.0694558
0.0616026
0.050102
0.0245025
0.00977339
0.000589919
-0.0039869
-0.00530238
-0.00350768
0.00117422
0.00833393
0.0174613
0.0279485
0.0390845
0.0500695
0.0600484
0.0681646
0.0736259
0.0757973
0.0743685
0.0692893
0.0595251
0.0445365
0.0251783
0.00715027
-0.0038019
-0.00905716
-0.0105122
-0.00850019
-0.00335721
0.00442887
0.0143127
0.0256784
0.0378132
0.0499028
0.0610477
0.0703027
0.0767341
0.0795163
0.0781384
0.072333
0.0605387
0.0418894
0.0210938
-0.000262189
-0.0129344
-0.0187093
-0.0200298
-0.017414
-0.0113186
-0.00232011
0.00898987
0.0219755
0.035909
0.0499438
0.0631117
0.0743448
0.0825214
0.086569
0.0857201
0.0794465
0.0656198
0.043071
0.0111431
-0.0136181
-0.0278751
-0.0338543
-0.0346036
-0.0308576
-0.023213
-0.0123454
0.00110444
0.0164833
0.0330519
0.049933
0.0660828
0.0802894
0.0912003
0.0974296
0.0978698
0.0916355
0.0758957
0.0491159
-0.00596703
-0.0342664
-0.0498701
-0.0555487
-0.0550903
-0.0495147
-0.0395936
-0.0261135
-0.00975736
0.0088226
0.0289005
0.0495929
0.069797
0.0881541
0.103047
0.112701
0.11555
0.110191
0.0928338
0.0614109
-0.0318572
-0.0638762
-0.080417
-0.0850073
-0.0824203
-0.0740785
-0.060981
-0.0440367
-0.0239517
-0.00133714
0.0231452
0.0486606
0.0740951
0.0979718
0.118396
0.133125
0.139988
0.136818
0.11844
0.0819334
-0.0686675
-0.104603
-0.121345
-0.12359
-0.117516
-0.105127
-0.0877184
-0.0663256
-0.0416371
-0.0141557
0.0156054
0.0469529
0.0788554
0.109793
0.137623
0.159585
0.172727
0.173778
0.15552
0.113571
-0.119403
-0.159357
-0.174915
-0.172757
-0.161148
-0.142929
-0.119759
-0.0927771
-0.0625775
-0.0294477
0.00637308
0.0444734
0.084055
0.123703
0.161136
0.193086
0.215668
0.224077
0.20805
0.160632
-0.188628
-0.232242
-0.243938
-0.233948
-0.213694
-0.187154
-0.156372
-0.122501
-0.0858978
-0.0464721
-0.00401432
0.041539
0.0898423
0.139829
0.189319
0.234689
0.271075
0.291664
0.281743
0.229776
-0.283974
-0.329304
-0.331831
-0.308279
-0.274708
-0.236439
-0.195764
-0.15361
-0.10984
-0.0637448
-0.0144374
0.0388639
0.0965548
0.158277
0.222375
0.285288
0.341398
0.381575
0.384914
0.331835
-0.419318
-0.45967
-0.44235
-0.395791
-0.342128
-0.287738
-0.234615
-0.182929
-0.131608
-0.078984
-0.0232131
0.0374762
0.104554
0.178839
0.259862
0.344971
0.428617
0.499701
0.529676
0.485392
-0.62053
-0.636742
-0.578676
-0.494192
-0.411239
-0.335657
-0.267779
-0.205976
-0.147535
-0.0893814
-0.0284246
0.0383498
0.113808
0.200473
0.299977
0.412027
0.533031
0.651776
0.732773
0.722397
-0.935922
-0.878513
-0.74174
-0.597947
-0.474391
-0.372657
-0.288866
-0.217761
-0.153951
-0.0924619
-0.0287154
0.0416976
0.123265
0.22072
0.338928
0.482157
0.651999
0.841343
1.01527
1.09751
-1.47642
-1.20663
-0.920501
-0.691386
-0.517303
-0.387542
-0.290059
-0.213335
-0.148122
-0.0872133
-0.0245755
0.0454596
0.128939
0.233073
0.367105
0.54268
0.771295
1.05932
1.40329
1.73014
-2.53965
-1.63055
-1.04444
-0.710956
-0.495748
-0.352091
-0.254528
-0.183581
-0.126167
-0.073593
-0.0192669
0.042789
0.119214
0.218785
0.354814
0.547986
0.826395
1.23658
1.91168
2.92419
-4.36666
-2.04463
-0.97354
-0.563178
-0.357844
-0.240144
-0.170117
-0.123781
-0.0874791
-0.0535082
-0.0166524
0.0276626
0.0846094
0.161732
0.272413
0.442101
0.718221
1.22571
2.41104
4.84853
)
;

boundaryField
{
    movingWall
    {
        type            zeroGradient;
    }
    fixedWalls
    {
        type            zeroGradient;
    }
    frontAndBack
    {
        type            empty;
    }
}


// ************************************************************************* //
