/*--------------------------------*- C++ -*----------------------------------*\
| =========                 |                                                 |
| \\      /  F ield         | OpenFOAM: The Open Source CFD Toolbox           |
|  \\    /   O peration     | Version:  2212                                  |
|   \\  /    A nd           | Website:  www.openfoam.com                      |
|    \\/     M anipulation  |                                                 |
\*---------------------------------------------------------------------------*/
FoamFile
{
    version     2.0;
    format      ascii;
    arch        "LSB;label=32;scalar=64";
    class       volScalarField;
    location    "0.975";
    object      p;
}
// * * * * * * * * * * * * * * * * * * * * * * * * * * * * * * * * * * * * * //

dimensions      [0 2 -2 0 0 0 0];

internalField   nonuniform List<scalar> 
400
(
3.57389e-06
-0.00582392
-0.0129619
-0.0184143
-0.020432
-0.0182384
-0.0117739
-0.00148374
0.0118374
0.0271493
0.0432448
0.0588236
0.0725793
0.0833091
0.0900535
0.0922676
0.0900264
0.0842445
0.0768812
0.0710677
0.00578216
-0.000217118
-0.00580314
-0.00954196
-0.0105985
-0.00843243
-0.00296977
0.00547423
0.016303
0.0287118
0.04175
0.0543864
0.065587
0.0744106
0.0801209
0.0823164
0.0810778
0.0770553
0.0712746
0.0653183
0.0133364
0.00503471
-0.000994517
-0.00442252
-0.00527248
-0.0032636
0.00160258
0.00902774
0.0185022
0.0293494
0.0407656
0.0518699
0.061769
0.0696369
0.0748076
0.0768786
0.0758421
0.0720863
0.0658058
0.0575358
0.0201407
0.00869698
0.00122666
-0.00266792
-0.00372167
-0.00188498
0.00273153
0.00978476
0.0187805
0.0290951
0.0399921
0.0506542
0.0602333
0.0679164
0.0730037
0.075002
0.0737662
0.0694564
0.0616032
0.0501027
0.0245032
0.00977415
0.000590623
-0.00398625
-0.00530174
-0.00350699
0.001175
0.00833476
0.0174621
0.0279492
0.0390851
0.0500701
0.0600491
0.0681653
0.0736267
0.0757981
0.0743693
0.06929
0.0595257
0.0445371
0.025179
0.00715106
-0.00380114
-0.00905647
-0.0105116
-0.00849956
-0.00335651
0.00442965
0.0143135
0.0256792
0.037814
0.0499034
0.0610483
0.0703033
0.0767349
0.0795171
0.0781392
0.0723338
0.0605394
0.04189
0.0210945
-0.000261421
-0.0129336
-0.0187085
-0.0200292
-0.0174134
-0.011318
-0.00231941
0.00899066
0.0219764
0.0359098
0.0499445
0.0631123
0.0743454
0.0825221
0.0865697
0.0857209
0.0794473
0.0656205
0.0430718
0.0111437
-0.0136174
-0.0278743
-0.0338535
-0.0346028
-0.0308569
-0.0232124
-0.0123448
0.00110513
0.0164841
0.0330528
0.0499339
0.0660836
0.0802901
0.0912009
0.0974302
0.0978705
0.0916363
0.0758965
0.0491166
-0.00596639
-0.0342658
-0.0498694
-0.0555479
-0.0550894
-0.0495139
-0.0395929
-0.0261129
-0.00975674
0.00882329
0.0289013
0.0495938
0.0697978
0.0881548
0.103048
0.112701
0.115551
0.110192
0.0928345
0.0614117
-0.0318565
-0.0638755
-0.0804163
-0.0850066
-0.0824194
-0.0740776
-0.0609803
-0.0440361
-0.0239511
-0.00133652
0.0231459
0.0486613
0.0740959
0.0979726
0.118396
0.133126
0.139989
0.136818
0.118441
0.0819341
-0.0686667
-0.104603
-0.121344
-0.123589
-0.117515
-0.105126
-0.0877176
-0.0663249
-0.0416364
-0.0141551
0.015606
0.0469536
0.0788562
0.109794
0.137624
0.159586
0.172727
0.173779
0.155521
0.113571
-0.119402
-0.159356
-0.174914
-0.172756
-0.161147
-0.142928
-0.119758
-0.0927763
-0.0625767
-0.029447
0.00637373
0.0444741
0.0840557
0.123704
0.161137
0.193087
0.215669
0.224078
0.208051
0.160633
-0.188628
-0.232241
-0.243938
-0.233947
-0.213693
-0.187154
-0.156372
-0.1225
-0.085897
-0.0464713
-0.0040136
0.0415397
0.0898429
0.13983
0.18932
0.23469
0.271075
0.291665
0.281744
0.229777
-0.283974
-0.329304
-0.33183
-0.308279
-0.274707
-0.236439
-0.195763
-0.153609
-0.109839
-0.0637439
-0.0144367
0.0388646
0.0965555
0.158278
0.222375
0.285289
0.341398
0.381576
0.384915
0.331835
-0.419317
-0.45967
-0.442349
-0.39579
-0.342127
-0.287738
-0.234614
-0.182928
-0.131608
-0.0789833
-0.0232123
0.037477
0.104555
0.178839
0.259863
0.344972
0.428618
0.499702
0.529677
0.485393
-0.62053
-0.636742
-0.578675
-0.494191
-0.411238
-0.335656
-0.267778
-0.205975
-0.147534
-0.0893807
-0.0284238
0.0383505
0.113809
0.200474
0.299977
0.412027
0.533032
0.651777
0.732774
0.722398
-0.935921
-0.878512
-0.741739
-0.597946
-0.47439
-0.372656
-0.288866
-0.21776
-0.153951
-0.0924613
-0.0287147
0.0416983
0.123266
0.220721
0.338928
0.482157
0.651999
0.841344
1.01527
1.09751
-1.47642
-1.20663
-0.9205
-0.691385
-0.517302
-0.387541
-0.290058
-0.213334
-0.148121
-0.0872126
-0.0245748
0.0454603
0.12894
0.233074
0.367106
0.542681
0.771296
1.05932
1.40329
1.73014
-2.53965
-1.63054
-1.04443
-0.710956
-0.495747
-0.35209
-0.254528
-0.18358
-0.126166
-0.0735922
-0.0192662
0.0427897
0.119215
0.218785
0.354815
0.547987
0.826396
1.23658
1.91168
2.9242
-4.36666
-2.04463
-0.973539
-0.563177
-0.357843
-0.240143
-0.170116
-0.12378
-0.0874783
-0.0535074
-0.0166517
0.0276634
0.0846102
0.161732
0.272414
0.442102
0.718222
1.22571
2.41104
4.84853
)
;

boundaryField
{
    movingWall
    {
        type            zeroGradient;
    }
    fixedWalls
    {
        type            zeroGradient;
    }
    frontAndBack
    {
        type            empty;
    }
}


// ************************************************************************* //
