/*--------------------------------*- C++ -*----------------------------------*\
| =========                 |                                                 |
| \\      /  F ield         | OpenFOAM: The Open Source CFD Toolbox           |
|  \\    /   O peration     | Version:  2212                                  |
|   \\  /    A nd           | Website:  www.openfoam.com                      |
|    \\/     M anipulation  |                                                 |
\*---------------------------------------------------------------------------*/
FoamFile
{
    version     2.0;
    format      ascii;
    arch        "LSB;label=32;scalar=64";
    class       volScalarField;
    location    "4.045";
    object      p;
}
// * * * * * * * * * * * * * * * * * * * * * * * * * * * * * * * * * * * * * //

dimensions      [0 2 -2 0 0 0 0];

internalField   nonuniform List<scalar> 
400
(
2.28436e-07
-0.000149563
-0.000529367
-0.00106126
-0.00171574
-0.00246903
-0.00315342
-0.00356208
-0.00352857
-0.00289954
-0.00152196
0.00063231
0.00325086
0.00551538
0.00655307
0.00597539
0.00408655
0.00225195
0.00121591
0.0011437
0.00011672
-5.6099e-05
-0.000371198
-0.000755108
-0.00123146
-0.00186905
-0.00267688
-0.00350261
-0.00403066
-0.00388813
-0.00280415
-0.000796324
0.00170583
0.00397665
0.00515697
0.00480551
0.00319874
0.00148273
0.00070255
0.000788204
0.000531648
0.000264273
-7.38115e-05
-0.000551568
-0.00133054
-0.00254786
-0.00416361
-0.00590326
-0.00730241
-0.00783685
-0.00716459
-0.00537667
-0.00282229
-0.000134376
0.00185663
0.0025101
0.00181352
0.000617645
-0.000278985
-0.000281905
0.0011362
0.000730564
0.000189608
-0.000763466
-0.00241533
-0.00486524
-0.00787805
-0.0109591
-0.0135073
-0.0149634
-0.0149949
-0.0136431
-0.0111211
-0.00788161
-0.00462297
-0.00208903
-0.000751711
-0.000587875
-0.00116905
-0.00180048
0.00154946
0.000949536
-2.89586e-05
-0.00189772
-0.00492981
-0.00903782
-0.0137006
-0.0182008
-0.0218856
-0.0242914
-0.0251599
-0.0243713
-0.0220468
-0.0184707
-0.0140767
-0.00946861
-0.00543915
-0.00282076
-0.00207743
-0.00389068
0.00124832
0.00041459
-0.00119569
-0.0042455
-0.00886477
-0.0146449
-0.0207412
-0.0262981
-0.0307069
-0.0336515
-0.0350047
-0.0346669
-0.0327176
-0.0292994
-0.0245485
-0.0186804
-0.0122922
-0.00679148
-0.00427309
-0.00638252
-8.96254e-05
-0.00116899
-0.00347308
-0.00768782
-0.0137129
-0.0207734
-0.0277782
-0.0338461
-0.038484
-0.0415321
-0.0429992
-0.0429064
-0.0413184
-0.0382995
-0.0338222
-0.0277651
-0.0202428
-0.0124936
-0.00770373
-0.00762013
-0.00246957
-0.00373703
-0.00663161
-0.0117422
-0.0187347
-0.0265348
-0.0339217
-0.0400753
-0.0446467
-0.0476024
-0.0490341
-0.0490385
-0.0476932
-0.0450415
-0.0410283
-0.0354137
-0.0279317
-0.0190901
-0.0116384
-0.00785958
-0.00552025
-0.00687094
-0.0101475
-0.015786
-0.0232713
-0.0313448
-0.0387552
-0.0447785
-0.0491855
-0.0520199
-0.0534071
-0.0534565
-0.0522424
-0.0498185
-0.0461874
-0.0411813
-0.0343755
-0.0255856
-0.0164663
-0.00983755
-0.00867635
-0.0100004
-0.0134342
-0.0192495
-0.0268317
-0.0348631
-0.0421241
-0.0479694
-0.0522379
-0.0549982
-0.056372
-0.0564495
-0.0552942
-0.0529735
-0.0495605
-0.0450319
-0.0390601
-0.0310895
-0.0220082
-0.0141116
-0.0114143
-0.0126395
-0.0160204
-0.0217229
-0.0291086
-0.036914
-0.0439794
-0.0496908
-0.0538945
-0.0566412
-0.0580289
-0.0581251
-0.056981
-0.0546698
-0.0513247
-0.0470639
-0.0418093
-0.0349045
-0.0268353
-0.0188887
-0.0134415
-0.0144822
-0.0176405
-0.0229704
-0.0299205
-0.0373748
-0.0442542
-0.049921
-0.0541574
-0.0569615
-0.0583929
-0.0585
-0.0573253
-0.0549433
-0.0515388
-0.047343
-0.0425852
-0.0365794
-0.0296605
-0.0221026
-0.0147248
-0.0154312
-0.0181427
-0.0228804
-0.0292068
-0.0362195
-0.0429318
-0.0486433
-0.0530155
-0.0559553
-0.0574689
-0.057582
-0.0563327
-0.0538174
-0.0502459
-0.0459122
-0.0413994
-0.0358776
-0.0298937
-0.0226092
-0.0153596
-0.0155994
-0.0175957
-0.0214605
-0.0269628
-0.033443
-0.0399949
-0.0458252
-0.0504383
-0.0536101
-0.0552706
-0.0554172
-0.0540697
-0.0513517
-0.0475165
-0.0429435
-0.0382759
-0.0328264
-0.0278478
-0.0200765
-0.0154756
-0.0151975
-0.0161997
-0.0188704
-0.0233182
-0.0291541
-0.0355341
-0.041544
-0.0465003
-0.0500119
-0.0519032
-0.0521182
-0.0506964
-0.0477304
-0.043543
-0.0385664
-0.0334804
-0.0279079
-0.0241072
-0.0143177
-0.0151923
-0.0144742
-0.0141732
-0.0152932
-0.0184654
-0.0235514
-0.0297423
-0.0359768
-0.0413671
-0.0453315
-0.0475703
-0.0479579
-0.0465197
-0.0433249
-0.038735
-0.0332067
-0.027516
-0.0216376
-0.0181289
-0.00393142
-0.0145972
-0.013568
-0.0116732
-0.0110415
-0.0128611
-0.0171868
-0.0232067
-0.0296987
-0.035589
-0.0401066
-0.0428216
-0.0435124
-0.0421739
-0.0388399
-0.0338345
-0.0275477
-0.0207373
-0.0134808
-0.00708033
0.0157905
-0.0145486
-0.0126359
-0.00866761
-0.00628498
-0.00693766
-0.010693
-0.0166423
-0.023424
-0.0298494
-0.0349862
-0.0382943
-0.0394308
-0.0383436
-0.0350428
-0.0296728
-0.0222698
-0.0130849
-0.00107479
0.0162221
0.0566683
-0.011791
-0.0118446
-0.00580582
-0.00190485
-0.00188596
-0.00545733
-0.0115117
-0.0186126
-0.0255375
-0.0312413
-0.0351532
-0.036847
-0.0362273
-0.0330206
-0.0270751
-0.0176138
-0.00344899
0.0200076
0.0601624
0.129377
-0.0295024
-0.0106666
-0.000723844
0.00291468
0.00228725
-0.00165291
-0.00798211
-0.015398
-0.0226836
-0.0287693
-0.0330589
-0.0351032
-0.034768
-0.0316379
-0.0250783
-0.0129165
0.00914238
0.0507245
0.122393
0.225676
)
;

boundaryField
{
    movingWall
    {
        type            zeroGradient;
    }
    fixedWalls
    {
        type            zeroGradient;
    }
    frontAndBack
    {
        type            empty;
    }
}


// ************************************************************************* //
