/*--------------------------------*- C++ -*----------------------------------*\
| =========                 |                                                 |
| \\      /  F ield         | OpenFOAM: The Open Source CFD Toolbox           |
|  \\    /   O peration     | Version:  2212                                  |
|   \\  /    A nd           | Website:  www.openfoam.com                      |
|    \\/     M anipulation  |                                                 |
\*---------------------------------------------------------------------------*/
FoamFile
{
    version     2.0;
    format      ascii;
    arch        "LSB;label=32;scalar=64";
    class       volVectorField;
    location    "2.53";
    object      U;
}
// * * * * * * * * * * * * * * * * * * * * * * * * * * * * * * * * * * * * * //

dimensions      [0 1 -1 0 0 0 0];

internalField   nonuniform List<vector> 
400
(
(0.00143868 -0.00147942 0)
(0.00407248 -0.00163634 0)
(0.00542243 -0.00106132 0)
(0.00443087 -0.000482189 0)
(0.000536875 0.000262918 0)
(-0.00727206 0.00169704 0)
(-0.0199678 0.00435888 0)
(-0.0373961 0.00783262 0)
(-0.0571486 0.0102579 0)
(-0.0745499 0.00980146 0)
(-0.0851048 0.00651648 0)
(-0.0863061 0.00177703 0)
(-0.0771925 -0.00320681 0)
(-0.0583997 -0.00767749 0)
(-0.0334686 -0.0102011 0)
(-0.00662149 -0.00930451 0)
(0.0145268 -0.00475274 0)
(0.0223197 0.00239979 0)
(0.0150466 0.00596412 0)
(0.00408804 0.00440423 0)
(0.00130229 -0.00418599 0)
(0.00204776 -0.00312447 0)
(-0.00176035 0.000890676 0)
(-0.0120208 0.0061344 0)
(-0.0304759 0.0130134 0)
(-0.0577163 0.0217815 0)
(-0.0908697 0.0303702 0)
(-0.123734 0.0345774 0)
(-0.150431 0.0318427 0)
(-0.167499 0.0227627 0)
(-0.173367 0.00944427 0)
(-0.167893 -0.00583009 0)
(-0.151635 -0.0213044 0)
(-0.12521 -0.034606 0)
(-0.0908181 -0.0421857 0)
(-0.0511536 -0.0399309 0)
(-0.0119558 -0.0255792 0)
(0.0152118 -0.00198714 0)
(0.0166614 0.0148866 0)
(0.00529107 0.0138836 0)
(-0.000574066 -0.00422691 0)
(-0.00587199 0.00199613 0)
(-0.0193465 0.0137761 0)
(-0.0422781 0.0288527 0)
(-0.0752044 0.045503 0)
(-0.114312 0.0596974 0)
(-0.152704 0.0663768 0)
(-0.184815 0.0630408 0)
(-0.208193 0.050605 0)
(-0.222066 0.0313544 0)
(-0.226333 0.0075746 0)
(-0.221543 -0.0187073 0)
(-0.208006 -0.0453913 0)
(-0.185272 -0.0690077 0)
(-0.153072 -0.0846076 0)
(-0.111441 -0.0853941 0)
(-0.0622764 -0.064789 0)
(-0.0137506 -0.0230093 0)
(0.00893177 0.0160722 0)
(0.00412093 0.0221957 0)
(-0.00334909 0.00202055 0)
(-0.0165542 0.0174577 0)
(-0.0407106 0.0387696 0)
(-0.0740848 0.0629584 0)
(-0.114503 0.08473 0)
(-0.155574 0.0977481 0)
(-0.190957 0.098169 0)
(-0.218141 0.0865899 0)
(-0.23712 0.0658832 0)
(-0.248378 0.0387111 0)
(-0.252677 0.00698835 0)
(-0.250808 -0.0279302 0)
(-0.242759 -0.0639396 0)
(-0.227509 -0.0981526 0)
(-0.203134 -0.12533 0)
(-0.167012 -0.136944 0)
(-0.116838 -0.121239 0)
(-0.0547169 -0.069196 0)
(-0.00117168 0.00195134 0)
(0.00469455 0.0266647 0)
(-0.0061465 0.0153713 0)
(-0.0264552 0.0422486 0)
(-0.0583988 0.071698 0)
(-0.0967605 0.101246 0)
(-0.137545 0.123223 0)
(-0.174133 0.131455 0)
(-0.202546 0.124641 0)
(-0.222619 0.105731 0)
(-0.235486 0.0784893 0)
(-0.242734 0.0457316 0)
(-0.246061 0.00908707 0)
(-0.246475 -0.0306278 0)
(-0.243864 -0.0723077 0)
(-0.237578 -0.114642 0)
(-0.224925 -0.153848 0)
(-0.20134 -0.181709 0)
(-0.161012 -0.183305 0)
(-0.0995679 -0.138428 0)
(-0.0214376 -0.0387258 0)
(0.00703985 0.0255476 0)
(-0.00774513 0.0336738 0)
(-0.0321508 0.0722936 0)
(-0.0672554 0.107135 0)
(-0.105104 0.138273 0)
(-0.141246 0.157212 0)
(-0.170168 0.159081 0)
(-0.190134 0.145024 0)
(-0.202296 0.119648 0)
(-0.208513 0.0873367 0)
(-0.211186 0.0511769 0)
(-0.212424 0.0127668 0)
(-0.213369 -0.0274601 0)
(-0.21432 -0.0699494 0)
(-0.215309 -0.115193 0)
(-0.214172 -0.162101 0)
(-0.205786 -0.205315 0)
(-0.182154 -0.2308 0)
(-0.134926 -0.211759 0)
(-0.0600532 -0.115224 0)
(0.00537117 0.0132026 0)
(-0.00751393 0.0538058 0)
(-0.0322398 0.103284 0)
(-0.0661186 0.140746 0)
(-0.0996433 0.170609 0)
(-0.128828 0.184704 0)
(-0.149643 0.179717 0)
(-0.16202 0.158814 0)
(-0.167815 0.127832 0)
(-0.169334 0.0916977 0)
(-0.169122 0.053633 0)
(-0.168916 0.0150672 0)
(-0.169544 -0.0239075 0)
(-0.171646 -0.0644626 0)
(-0.175824 -0.108126 0)
(-0.181393 -0.156225 0)
(-0.18458 -0.20771 0)
(-0.17735 -0.253489 0)
(-0.149751 -0.26734 0)
(-0.095635 -0.199791 0)
(-0.00846705 -0.0148137 0)
(-0.00555494 0.0725306 0)
(-0.0271743 0.131773 0)
(-0.0565948 0.169994 0)
(-0.0838653 0.196976 0)
(-0.105787 0.205597 0)
(-0.119772 0.194003 0)
(-0.126771 0.167036 0)
(-0.128933 0.131509 0)
(-0.128658 0.0927001 0)
(-0.128048 0.0536521 0)
(-0.127998 0.0153398 0)
(-0.128759 -0.0225402 0)
(-0.130874 -0.061097 0)
(-0.135183 -0.101834 0)
(-0.142358 -0.147101 0)
(-0.150971 -0.199557 0)
(-0.154738 -0.257098 0)
(-0.143164 -0.29967 0)
(-0.10909 -0.269709 0)
(-0.0295555 -0.0727432 0)
(-0.00246736 0.0870429 0)
(-0.0185934 0.155172 0)
(-0.0415977 0.193258 0)
(-0.0619696 0.216709 0)
(-0.0772875 0.22018 0)
(-0.086129 0.203118 0)
(-0.0899149 0.171556 0)
(-0.0906998 0.13294 0)
(-0.0905828 0.092681 0)
(-0.0909227 0.0534413 0)
(-0.0918691 0.0155945 0)
(-0.0933078 -0.0215912 0)
(-0.0954688 -0.0589789 0)
(-0.0990102 -0.0974671 0)
(-0.105257 -0.139119 0)
(-0.115009 -0.188473 0)
(-0.124812 -0.250121 0)
(-0.123964 -0.314434 0)
(-0.105145 -0.325997 0)
(-0.036259 -0.157277 0)
(0.00109224 0.0952758 0)
(-0.00809392 0.171806 0)
(-0.0235857 0.210023 0)
(-0.0370445 0.230486 0)
(-0.0465798 0.230036 0)
(-0.0516526 0.209099 0)
(-0.0536685 0.174489 0)
(-0.054245 0.13408 0)
(-0.054923 0.093288 0)
(-0.0563963 0.0542974 0)
(-0.0584347 0.0169065 0)
(-0.0608147 -0.01991 0)
(-0.0635471 -0.0568346 0)
(-0.0669376 -0.0941822 0)
(-0.072134 -0.133025 0)
(-0.0809662 -0.177826 0)
(-0.0934075 -0.237643 0)
(-0.0991953 -0.314871 0)
(-0.0938113 -0.363269 0)
(-0.030481 -0.235174 0)
(0.00456143 0.0962481 0)
(0.00275492 0.180663 0)
(-0.00489339 0.219965 0)
(-0.0116711 0.238218 0)
(-0.0160556 0.235099 0)
(-0.0179926 0.212007 0)
(-0.0186764 0.176104 0)
(-0.0191453 0.135279 0)
(-0.0203359 0.0947247 0)
(-0.0225026 0.0562643 0)
(-0.025294 0.0193951 0)
(-0.0285495 -0.0169939 0)
(-0.0322735 -0.0535742 0)
(-0.0364959 -0.090393 0)
(-0.0419195 -0.127612 0)
(-0.0501178 -0.168442 0)
(-0.06406 -0.223899 0)
(-0.0737483 -0.307962 0)
(-0.0805851 -0.387388 0)
(-0.0228055 -0.299 0)
(0.00742506 0.0903504 0)
(0.0129239 0.181481 0)
(0.0130178 0.223256 0)
(0.0127338 0.240806 0)
(0.0133891 0.236695 0)
(0.0146635 0.213136 0)
(0.0155938 0.17731 0)
(0.0156648 0.13692 0)
(0.0145155 0.0969209 0)
(0.0121828 0.0590405 0)
(0.00900492 0.022803 0)
(0.00503167 -0.0128749 0)
(0.000155012 -0.0487297 0)
(-0.0055551 -0.0848151 0)
(-0.0125335 -0.120844 0)
(-0.0212744 -0.158453 0)
(-0.0372087 -0.208296 0)
(-0.0493285 -0.29403 0)
(-0.0680444 -0.399374 0)
(-0.0146106 -0.351817 0)
(0.00890144 0.0787591 0)
(0.0210444 0.174359 0)
(0.0284657 0.219425 0)
(0.0342913 0.23723 0)
(0.0399639 0.233273 0)
(0.0450649 0.210683 0)
(0.0486385 0.176298 0)
(0.0503397 0.137372 0)
(0.0501449 0.0986225 0)
(0.0482934 0.0618043 0)
(0.0451056 0.0266469 0)
(0.0405603 -0.00783612 0)
(0.0345244 -0.0423906 0)
(0.0270247 -0.0771573 0)
(0.0174034 -0.111753 0)
(0.006514 -0.146807 0)
(-0.0126368 -0.191625 0)
(-0.025831 -0.275714 0)
(-0.056589 -0.4021 0)
(-0.00647464 -0.394046 0)
(0.0083733 0.0635905 0)
(0.0257615 0.159828 0)
(0.0402845 0.208893 0)
(0.0524013 0.228498 0)
(0.0635466 0.226108 0)
(0.0733331 0.205831 0)
(0.0807182 0.17403 0)
(0.0852536 0.137362 0)
(0.0869973 0.100351 0)
(0.0862825 0.0649246 0)
(0.0834771 0.0311879 0)
(0.0784882 -0.00167397 0)
(0.0711644 -0.0341785 0)
(0.0616874 -0.0667982 0)
(0.0489608 -0.09927 0)
(0.034555 -0.131701 0)
(0.0107585 -0.171654 0)
(-0.00244087 -0.252619 0)
(-0.0460877 -0.398368 0)
(0.00223237 -0.429277 0)
(0.0058138 0.0481007 0)
(0.0256226 0.140122 0)
(0.0458651 0.191333 0)
(0.0639226 0.212085 0)
(0.0809919 0.211332 0)
(0.0966038 0.194082 0)
(0.109349 0.166057 0)
(0.118384 0.133031 0)
(0.12356 0.0991379 0)
(0.125134 0.0663705 0)
(0.123403 0.035207 0)
(0.118495 0.00507401 0)
(0.109964 -0.0243099 0)
(0.0983941 -0.0536263 0)
(0.0818828 -0.082869 0)
(0.0632869 -0.112761 0)
(0.0342176 -0.148925 0)
(0.0207649 -0.226983 0)
(-0.036156 -0.391421 0)
(0.0126712 -0.458757 0)
(0.00192719 0.035319 0)
(0.020205 0.117824 0)
(0.0450535 0.169587 0)
(0.0692604 0.191543 0)
(0.0929814 0.192575 0)
(0.115327 0.178575 0)
(0.134546 0.154895 0)
(0.149278 0.126363 0)
(0.159001 0.0965781 0)
(0.16387 0.0674483 0)
(0.16387 0.0397511 0)
(0.159673 0.0132771 0)
(0.150063 -0.0122181 0)
(0.136546 -0.0372825 0)
(0.115969 -0.0622231 0)
(0.0932027 -0.0887143 0)
(0.0587054 -0.122152 0)
(0.0433913 -0.198748 0)
(-0.0249252 -0.381496 0)
(0.0273729 -0.481531 0)
(-0.00319235 0.0308265 0)
(0.00743438 0.0983532 0)
(0.0314334 0.140598 0)
(0.06112 0.159699 0)
(0.0924093 0.161611 0)
(0.122943 0.151176 0)
(0.150158 0.132805 0)
(0.172226 0.110214 0)
(0.188033 0.0863672 0)
(0.197759 0.0628877 0)
(0.200713 0.0406911 0)
(0.198381 0.019752 0)
(0.18851 -7.9579e-05 0)
(0.174232 -0.0193455 0)
(0.150415 -0.0384302 0)
(0.124969 -0.0606009 0)
(0.0854909 -0.0931717 0)
(0.0658662 -0.172667 0)
(-0.00674848 -0.366351 0)
(0.0509668 -0.48934 0)
(-0.0123369 0.0208338 0)
(-0.00780329 0.0878587 0)
(0.0149692 0.119792 0)
(0.0490723 0.130706 0)
(0.0874793 0.129968 0)
(0.125633 0.121669 0)
(0.16029 0.108361 0)
(0.189014 0.0919407 0)
(0.210349 0.0746895 0)
(0.225002 0.0575698 0)
(0.231136 0.0416976 0)
(0.232091 0.0269165 0)
(0.223505 0.0136422 0)
(0.212234 0.000814576 0)
(0.188808 -0.0120171 0)
(0.166764 -0.0300466 0)
(0.125111 -0.0621257 0)
(0.103064 -0.142119 0)
(0.0351676 -0.325241 0)
(0.091482 -0.45524 0)
(-0.104983 0.0840678 0)
(-0.0773194 0.0698071 0)
(-0.0500334 0.0712477 0)
(-0.000494565 0.0742462 0)
(0.0499982 0.0740714 0)
(0.100016 0.0701059 0)
(0.145115 0.0634878 0)
(0.185864 0.0548865 0)
(0.217174 0.0460283 0)
(0.244768 0.0370691 0)
(0.260671 0.0291112 0)
(0.276024 0.0217037 0)
(0.277328 0.0156024 0)
(0.282323 0.00971717 0)
(0.267993 0.00341218 0)
(0.2625 -0.00754566 0)
(0.225337 -0.033095 0)
(0.214381 -0.0940362 0)
(0.149078 -0.229547 0)
(0.170441 -0.341483 0)
(0.130653 0.104397 0)
(0.159803 0.0766863 0)
(0.214344 0.0547041 0)
(0.272412 0.0426641 0)
(0.323703 0.0364832 0)
(0.374307 0.0321901 0)
(0.41716 0.0290198 0)
(0.460912 0.0256481 0)
(0.49299 0.0230251 0)
(0.527553 0.0198893 0)
(0.546823 0.0178249 0)
(0.572721 0.0149499 0)
(0.579364 0.0136156 0)
(0.5984 0.0108601 0)
(0.590922 0.00999525 0)
(0.600617 0.00557838 0)
(0.566204 0.000649087 0)
(0.54754 -0.0178836 0)
(0.436674 -0.0502332 0)
(0.337349 -0.101362 0)
)
;

boundaryField
{
    movingWall
    {
        type            fixedValue;
        value           uniform (1 0 0);
    }
    fixedWalls
    {
        type            noSlip;
    }
    frontAndBack
    {
        type            empty;
    }
}


// ************************************************************************* //
