/*--------------------------------*- C++ -*----------------------------------*\
| =========                 |                                                 |
| \\      /  F ield         | OpenFOAM: The Open Source CFD Toolbox           |
|  \\    /   O peration     | Version:  2212                                  |
|   \\  /    A nd           | Website:  www.openfoam.com                      |
|    \\/     M anipulation  |                                                 |
\*---------------------------------------------------------------------------*/
FoamFile
{
    version     2.0;
    format      ascii;
    arch        "LSB;label=32;scalar=64";
    class       volScalarField;
    location    "2.58";
    object      p;
}
// * * * * * * * * * * * * * * * * * * * * * * * * * * * * * * * * * * * * * //

dimensions      [0 2 -2 0 0 0 0];

internalField   nonuniform List<scalar> 
400
(
-1.69846e-08
-0.00014261
-0.000493321
-0.000987514
-0.00159752
-0.00229389
-0.00293165
-0.00331354
-0.00327051
-0.00265528
-0.00133245
0.00071975
0.00322277
0.00541471
0.00647584
0.00602444
0.00430284
0.00258229
0.00157869
0.00149183
0.000118562
-4.38762e-05
-0.000333387
-0.00069575
-0.00114664
-0.00173649
-0.0024707
-0.00321563
-0.00368491
-0.0035326
-0.00250114
-0.000594578
0.00179232
0.00398749
0.00518036
0.00493465
0.00348666
0.00185767
0.00109561
0.00115355
0.000494161
0.000255132
-5.43428e-05
-0.000498068
-0.00121239
-0.00231868
-0.0037881
-0.0053786
-0.00666605
-0.00716177
-0.0065327
-0.00483835
-0.00240616
0.000174449
0.0021182
0.00279979
0.00218404
0.00104339
0.000160546
0.000128516
0.00102342
0.000654375
0.000174874
-0.000678654
-0.00216418
-0.00438668
-0.00715139
-0.0100077
-0.0123932
-0.0137739
-0.0138198
-0.0125523
-0.0101701
-0.0070915
-0.00397526
-0.00153936
-0.000258785
-0.000125996
-0.000715347
-0.00134664
0.00132804
0.000796308
-5.40243e-05
-0.00170562
-0.00442932
-0.00817827
-0.0124992
-0.0167214
-0.0202133
-0.0225163
-0.0233713
-0.0226636
-0.0204934
-0.0171183
-0.0129467
-0.00856266
-0.00474104
-0.00228626
-0.00163144
-0.00338418
0.000975443
0.000240612
-0.00115605
-0.00385532
-0.00802479
-0.0133443
-0.0190487
-0.0243126
-0.0285271
-0.0313673
-0.0327029
-0.0324415
-0.0306442
-0.0274399
-0.0229511
-0.0173828
-0.0113157
-0.00610945
-0.0037574
-0.00581918
-0.000318548
-0.00127037
-0.00327731
-0.00702784
-0.0125008
-0.01905
-0.025655
-0.0314386
-0.0358895
-0.0388328
-0.0402752
-0.0402436
-0.0387985
-0.0359994
-0.0318093
-0.0260948
-0.0189557
-0.0115924
-0.0070798
-0.00712222
-0.00255277
-0.00367433
-0.00621207
-0.010783
-0.0171718
-0.0244519
-0.0314529
-0.0373352
-0.0417218
-0.0445647
-0.0459565
-0.0460021
-0.0447863
-0.0423546
-0.0386454
-0.0334006
-0.026333
-0.0179336
-0.0108912
-0.00739433
-0.00539551
-0.00659459
-0.00948497
-0.0145478
-0.0214154
-0.0289825
-0.0360277
-0.0417913
-0.0460131
-0.0487246
-0.050056
-0.050128
-0.049027
-0.0468149
-0.0434922
-0.0388719
-0.0324953
-0.0241658
-0.0155022
-0.00922261
-0.0083441
-0.00951899
-0.0125604
-0.0177938
-0.0247663
-0.0323112
-0.0392259
-0.0448218
-0.0489071
-0.0515406
-0.05285
-0.0529367
-0.0518773
-0.0497519
-0.0466381
-0.0424979
-0.036962
-0.0294448
-0.0207916
-0.0132136
-0.0109291
-0.0120083
-0.0150066
-0.0201408
-0.0269344
-0.0342683
-0.0409985
-0.0464683
-0.0504937
-0.0531161
-0.054438
-0.0545366
-0.0534747
-0.0513417
-0.0482812
-0.0444023
-0.0395858
-0.0331208
-0.0254352
-0.0177461
-0.0128799
-0.0137798
-0.0165772
-0.021369
-0.0277494
-0.0347375
-0.0412792
-0.0467049
-0.0507665
-0.0534516
-0.0548207
-0.0549297
-0.0538299
-0.0516175
-0.0484872
-0.0446699
-0.0403541
-0.0347801
-0.0282025
-0.0208452
-0.0141548
-0.0147452
-0.0171293
-0.0213697
-0.0271509
-0.0336926
-0.0400493
-0.0455065
-0.0497004
-0.0525237
-0.0539802
-0.054101
-0.0529336
-0.0505911
-0.0472976
-0.0433513
-0.0392959
-0.0342117
-0.0285245
-0.0214083
-0.0148252
-0.014998
-0.0167226
-0.020146
-0.0251326
-0.0311315
-0.0372963
-0.0428423
-0.0472596
-0.0503098
-0.0519172
-0.0520802
-0.0508343
-0.0483114
-0.0447797
-0.040622
-0.0364498
-0.031454
-0.026703
-0.0191284
-0.0149998
-0.0147186
-0.0155389
-0.0178514
-0.0218292
-0.0271733
-0.0331208
-0.0387961
-0.0435199
-0.0468925
-0.0487323
-0.0489835
-0.0476878
-0.0449579
-0.0411248
-0.0366178
-0.0320749
-0.0269842
-0.0233722
-0.0138304
-0.0147984
-0.0141315
-0.0137676
-0.0146535
-0.0174305
-0.0220235
-0.0277293
-0.0335623
-0.0386644
-0.0424572
-0.0446361
-0.0450743
-0.0438016
-0.0408989
-0.0367331
-0.0317483
-0.0266571
-0.0212903
-0.0181173
-0.00407546
-0.0143123
-0.0133715
-0.0115554
-0.0108524
-0.0123725
-0.0162162
-0.0217002
-0.0277165
-0.033249
-0.0375462
-0.0401787
-0.0409236
-0.0397787
-0.0368007
-0.0322971
-0.0266442
-0.0205265
-0.0138947
-0.00798401
0.0149259
-0.014425
-0.0126074
-0.00884856
-0.00656715
-0.0070192
-0.0103154
-0.0156953
-0.0219388
-0.0279389
-0.0328009
-0.0359959
-0.037185
-0.0363138
-0.0333864
-0.0285671
-0.0218877
-0.0135397
-0.00232243
0.0144386
0.0551158
-0.0118352
-0.0120422
-0.00636447
-0.00263965
-0.00244581
-0.00556521
-0.011028
-0.0175453
-0.0239932
-0.0293791
-0.0331459
-0.0348682
-0.0344503
-0.0316369
-0.0262916
-0.0176097
-0.00436073
0.0182279
0.0579464
0.127475
-0.0295459
-0.01104
-0.00149912
0.00197123
0.0015112
-0.00198178
-0.00771429
-0.0145289
-0.0213125
-0.0270524
-0.031171
-0.0332246
-0.0330795
-0.0303277
-0.0243303
-0.0129162
0.00822039
0.0489997
0.12036
0.223891
)
;

boundaryField
{
    movingWall
    {
        type            zeroGradient;
    }
    fixedWalls
    {
        type            zeroGradient;
    }
    frontAndBack
    {
        type            empty;
    }
}


// ************************************************************************* //
