/*--------------------------------*- C++ -*----------------------------------*\
| =========                 |                                                 |
| \\      /  F ield         | OpenFOAM: The Open Source CFD Toolbox           |
|  \\    /   O peration     | Version:  2212                                  |
|   \\  /    A nd           | Website:  www.openfoam.com                      |
|    \\/     M anipulation  |                                                 |
\*---------------------------------------------------------------------------*/
FoamFile
{
    version     2.0;
    format      ascii;
    arch        "LSB;label=32;scalar=64";
    class       volScalarField;
    location    "1.565";
    object      p;
}
// * * * * * * * * * * * * * * * * * * * * * * * * * * * * * * * * * * * * * //

dimensions      [0 2 -2 0 0 0 0];

internalField   nonuniform List<scalar> 
400
(
2.77715e-06
-0.00582528
-0.0129634
-0.0184158
-0.0204335
-0.0182399
-0.0117754
-0.00148524
0.0118359
0.0271478
0.0432432
0.058822
0.0725778
0.0833077
0.090052
0.0922661
0.0900249
0.0842429
0.0768796
0.0710661
0.00578082
-0.000218554
-0.00580462
-0.00954347
-0.0106001
-0.00843394
-0.00297125
0.00547276
0.0163015
0.0287103
0.0417485
0.0543848
0.0655854
0.0744091
0.0801194
0.0823149
0.0810763
0.0770538
0.071273
0.0653167
0.0133349
0.00503325
-0.000995986
-0.00442402
-0.00527401
-0.00326514
0.00160106
0.00902626
0.0185007
0.0293479
0.0407641
0.0518684
0.0617674
0.0696354
0.0748061
0.0768772
0.0758407
0.0720848
0.0658043
0.0575342
0.0201392
0.00869551
0.0012252
-0.00266941
-0.00372319
-0.00188653
0.00272998
0.00978324
0.018779
0.0290937
0.0399906
0.0506527
0.0602317
0.0679148
0.0730021
0.0750005
0.0737648
0.069455
0.0616017
0.0501011
0.0245017
0.00977265
0.000589154
-0.00398771
-0.00530323
-0.00350852
0.00117344
0.00833321
0.0174606
0.0279477
0.0390837
0.0500686
0.0600476
0.0681638
0.0736251
0.0757965
0.0743678
0.0692886
0.0595243
0.0445357
0.0251775
0.00714953
-0.00380263
-0.00905793
-0.010513
-0.00850105
-0.00335805
0.00442809
0.014312
0.0256777
0.0378125
0.049902
0.0610468
0.0703018
0.0767333
0.0795156
0.0781376
0.0723322
0.0605379
0.0418886
0.021093
-0.000262962
-0.0129352
-0.01871
-0.0200306
-0.0174149
-0.0113195
-0.00232095
0.00898909
0.0219748
0.0359083
0.0499431
0.0631109
0.074344
0.0825206
0.0865681
0.0857194
0.0794457
0.065619
0.0430703
0.0111422
-0.0136189
-0.0278758
-0.033855
-0.0346043
-0.0308583
-0.0232138
-0.0123463
0.00110359
0.0164826
0.0330512
0.0499323
0.0660821
0.0802887
0.0911995
0.0974287
0.097869
0.0916347
0.0758949
0.0491151
-0.00596786
-0.0342673
-0.0498709
-0.0555495
-0.055091
-0.0495154
-0.0395944
-0.0261143
-0.00975824
0.00882176
0.0288997
0.0495922
0.0697963
0.0881533
0.103046
0.1127
0.115549
0.110191
0.092833
0.0614101
-0.0318579
-0.063877
-0.0804178
-0.0850081
-0.082421
-0.0740792
-0.0609817
-0.0440375
-0.0239525
-0.00133801
0.0231444
0.0486598
0.0740944
0.0979711
0.118395
0.133125
0.139987
0.136817
0.11844
0.0819326
-0.0686682
-0.104604
-0.121345
-0.123591
-0.117516
-0.105128
-0.0877191
-0.0663264
-0.0416379
-0.0141566
0.0156045
0.0469521
0.0788546
0.109792
0.137623
0.159585
0.172726
0.173777
0.15552
0.11357
-0.119403
-0.159358
-0.174916
-0.172758
-0.161149
-0.14293
-0.11976
-0.0927778
-0.0625782
-0.0294485
0.00637226
0.0444726
0.0840542
0.123702
0.161135
0.193085
0.215667
0.224076
0.20805
0.160632
-0.188629
-0.232243
-0.243939
-0.233948
-0.213695
-0.187155
-0.156373
-0.122502
-0.0858985
-0.0464728
-0.00401508
0.0415382
0.0898415
0.139829
0.189318
0.234689
0.271074
0.291664
0.281742
0.229775
-0.283975
-0.329305
-0.331832
-0.30828
-0.274709
-0.23644
-0.195765
-0.15361
-0.10984
-0.0637455
-0.0144382
0.0388631
0.096554
0.158276
0.222374
0.285288
0.341397
0.381575
0.384914
0.331834
-0.419319
-0.459671
-0.44235
-0.395792
-0.342129
-0.287739
-0.234616
-0.18293
-0.131609
-0.0789848
-0.0232138
0.0374755
0.104553
0.178838
0.259861
0.34497
0.428616
0.4997
0.529675
0.485392
-0.620531
-0.636743
-0.578676
-0.494192
-0.41124
-0.335657
-0.26778
-0.205977
-0.147536
-0.0893823
-0.0284254
0.038349
0.113807
0.200472
0.299976
0.412026
0.53303
0.651776
0.732772
0.722396
-0.935923
-0.878514
-0.74174
-0.597947
-0.474392
-0.372658
-0.288867
-0.217761
-0.153952
-0.0924627
-0.0287162
0.0416968
0.123265
0.220719
0.338927
0.482156
0.651998
0.841343
1.01527
1.0975
-1.47642
-1.20663
-0.920502
-0.691386
-0.517303
-0.387542
-0.29006
-0.213336
-0.148122
-0.0872141
-0.0245763
0.0454588
0.128939
0.233072
0.367104
0.542679
0.771294
1.05932
1.40329
1.73014
-2.53965
-1.63055
-1.04444
-0.710957
-0.495749
-0.352092
-0.254529
-0.183582
-0.126168
-0.0735937
-0.0192677
0.0427882
0.119214
0.218784
0.354813
0.547985
0.826394
1.23658
1.91168
2.92419
-4.36666
-2.04463
-0.97354
-0.563179
-0.357845
-0.240145
-0.170118
-0.123781
-0.0874798
-0.0535089
-0.0166532
0.0276619
0.0846087
0.161731
0.272412
0.4421
0.71822
1.22571
2.41104
4.84853
)
;

boundaryField
{
    movingWall
    {
        type            zeroGradient;
    }
    fixedWalls
    {
        type            zeroGradient;
    }
    frontAndBack
    {
        type            empty;
    }
}


// ************************************************************************* //
