/*--------------------------------*- C++ -*----------------------------------*\
| =========                 |                                                 |
| \\      /  F ield         | OpenFOAM: The Open Source CFD Toolbox           |
|  \\    /   O peration     | Version:  2212                                  |
|   \\  /    A nd           | Website:  www.openfoam.com                      |
|    \\/     M anipulation  |                                                 |
\*---------------------------------------------------------------------------*/
FoamFile
{
    version     2.0;
    format      ascii;
    arch        "LSB;label=32;scalar=64";
    class       surfaceScalarField;
    location    "3.54";
    object      phi;
}
// * * * * * * * * * * * * * * * * * * * * * * * * * * * * * * * * * * * * * //

dimensions      [0 3 -1 0 0 0 0];

oriented        oriented;

internalField   nonuniform List<scalar> 
760
(
1.51033e-07
-1.51033e-07
2.82889e-07
-1.31857e-07
2.96917e-07
-1.40277e-08
1.71204e-07
1.25713e-07
-1.29031e-07
3.00234e-07
-6.65862e-07
5.36831e-07
-1.47064e-06
8.04775e-07
-2.45961e-06
9.88972e-07
-3.43624e-06
9.76631e-07
-4.17131e-06
7.35069e-07
-4.49803e-06
3.2672e-07
-4.31981e-06
-1.78215e-07
-3.57777e-06
-7.4204e-07
-2.38318e-06
-1.19459e-06
-9.62424e-07
-1.42076e-06
3.14024e-07
-1.27645e-06
1.05816e-06
-7.44132e-07
1.01349e-06
4.46672e-08
4.53986e-07
5.59503e-07
4.53986e-07
1.16671e-07
-2.67704e-07
5.9988e-08
-7.51734e-08
-3.09213e-07
3.55173e-07
-1.07913e-06
8.95633e-07
-2.29461e-06
1.51571e-06
-3.8788e-06
2.12101e-06
-5.5888e-06
2.51478e-06
-7.11729e-06
2.51746e-06
-8.24038e-06
2.09971e-06
-8.84696e-06
1.34165e-06
-8.88915e-06
3.68914e-07
-8.3432e-06
-7.24167e-07
-7.24e-06
-1.84524e-06
-5.61113e-06
-2.82346e-06
-3.59807e-06
-3.43382e-06
-1.50163e-06
-3.37289e-06
1.54934e-07
-2.40069e-06
8.38947e-07
-6.39345e-07
5.17426e-07
8.81025e-07
9.71412e-07
-1.33045e-07
-1.34659e-07
-6.37065e-07
4.28847e-07
-1.61361e-06
1.33172e-06
-3.10382e-06
2.38584e-06
-4.988e-06
3.39989e-06
-6.97567e-06
4.10869e-06
-8.75634e-06
4.29545e-06
-1.0149e-05
3.91013e-06
-1.11e-05
3.0507e-06
-1.1601e-05
1.84265e-06
-1.16028e-05
3.70704e-07
-1.11542e-05
-1.17274e-06
-1.02372e-05
-2.76227e-06
-8.7973e-06
-4.26335e-06
-6.81371e-06
-5.4174e-06
-4.37395e-06
-5.81265e-06
-1.87285e-06
-4.9018e-06
-9.36219e-08
-2.41857e-06
2.91121e-07
4.96282e-07
1.26253e-06
-4.96146e-07
3.61487e-07
-1.54135e-06
1.47405e-06
-3.07456e-06
2.86494e-06
-5.00386e-06
4.31514e-06
-7.07747e-06
5.4735e-06
-8.99316e-06
6.02439e-06
-1.05487e-05
5.85097e-06
-1.16986e-05
5.06002e-06
-1.24697e-05
3.82187e-06
-1.2897e-05
2.26993e-06
-1.29673e-05
4.40986e-07
-1.27358e-05
-1.40426e-06
-1.2166e-05
-3.33206e-06
-1.1156e-05
-5.27333e-06
-9.57453e-06
-6.99889e-06
-7.29705e-06
-8.09013e-06
-4.3618e-06
-7.83705e-06
-1.3718e-06
-5.40857e-06
1.17573e-07
-9.93086e-07
1.38011e-06
-8.47613e-07
1.2091e-06
-2.32173e-06
2.94816e-06
-4.16089e-06
4.7041e-06
-6.17708e-06
6.33133e-06
-8.09537e-06
7.39178e-06
-9.69405e-06
7.62307e-06
-1.08935e-05
7.05047e-06
-1.17182e-05
5.88463e-06
-1.22294e-05
4.3331e-06
-1.25005e-05
2.54103e-06
-1.26215e-05
5.61955e-07
-1.25827e-05
-1.443e-06
-1.23738e-05
-3.54095e-06
-1.19147e-05
-5.73246e-06
-1.10184e-05
-7.89516e-06
-9.39756e-06
-9.71101e-06
-6.7559e-06
-1.04787e-05
-3.19414e-06
-8.97033e-06
-2.62343e-07
-3.92488e-06
1.11776e-06
-1.06475e-06
2.27385e-06
-2.73157e-06
4.61498e-06
-4.59395e-06
6.56648e-06
-6.42576e-06
8.16314e-06
-8.00536e-06
8.97138e-06
-9.19991e-06
8.81762e-06
-1.00018e-05
7.85238e-06
-1.04745e-05
6.35733e-06
-1.07083e-05
4.56691e-06
-1.08044e-05
2.63708e-06
-1.08847e-05
6.42252e-07
-1.09411e-05
-1.38653e-06
-1.09875e-05
-3.49462e-06
-1.0993e-05
-5.7269e-06
-1.08018e-05
-8.08636e-06
-1.00851e-05
-1.04277e-05
-8.35084e-06
-1.2213e-05
-5.1897e-06
-1.21315e-05
-1.14869e-06
-7.96589e-06
-3.09322e-08
-1.08571e-06
3.35956e-06
-2.70314e-06
6.2324e-06
-4.3738e-06
8.23715e-06
-5.88847e-06
9.67781e-06
-7.08765e-06
1.01706e-05
-7.90594e-06
9.6359e-06
-8.37756e-06
8.324e-06
-8.58815e-06
6.56793e-06
-8.64188e-06
4.62065e-06
-8.63826e-06
2.63346e-06
-8.66317e-06
6.67161e-07
-8.7382e-06
-1.3115e-06
-8.88293e-06
-3.3499e-06
-9.10774e-06
-5.5021e-06
-9.35236e-06
-7.84174e-06
-9.38076e-06
-1.03993e-05
-8.67177e-06
-1.2922e-05
-6.47434e-06
-1.43289e-05
-2.39685e-06
-1.20434e-05
-2.42779e-06
-9.13335e-07
4.2729e-06
-2.2987e-06
7.61777e-06
-3.66429e-06
9.60273e-06
-4.82716e-06
1.08407e-05
-5.68546e-06
1.10289e-05
-6.2193e-06
1.01697e-05
-6.48295e-06
8.58765e-06
-6.56654e-06
6.65152e-06
-6.56773e-06
4.62184e-06
-6.56247e-06
2.6282e-06
-6.58996e-06
6.94649e-07
-6.66909e-06
-1.23237e-06
-6.82218e-06
-3.1968e-06
-7.08009e-06
-5.24418e-06
-7.45775e-06
-7.46408e-06
-7.85826e-06
-9.99882e-06
-7.8652e-06
-1.2915e-05
-6.66127e-06
-1.55328e-05
-3.54627e-06
-1.51584e-05
-5.97406e-06
-6.08783e-07
4.88168e-06
-1.65134e-06
8.66032e-06
-2.66852e-06
1.06199e-05
-3.49527e-06
1.16674e-05
-4.0748e-06
1.16084e-05
-4.41489e-06
1.05098e-05
-4.57252e-06
8.74527e-06
-4.62593e-06
6.70493e-06
-4.64899e-06
4.6449e-06
-4.68783e-06
2.66704e-06
-4.75419e-06
7.61014e-07
-4.85576e-06
-1.13081e-06
-5.0038e-06
-3.04876e-06
-5.22863e-06
-5.01935e-06
-5.58604e-06
-7.10667e-06
-6.08606e-06
-9.4988e-06
-6.50114e-06
-1.24999e-05
-6.08465e-06
-1.59493e-05
-3.89205e-06
-1.7351e-05
-9.86611e-06
-2.25057e-07
5.10674e-06
-8.72794e-07
9.30806e-06
-1.53381e-06
1.12809e-05
-2.05498e-06
1.21886e-05
-2.40732e-06
1.19607e-05
-2.61382e-06
1.07163e-05
-2.72198e-06
8.85343e-06
-2.78517e-06
6.76811e-06
-2.84922e-06
4.70895e-06
-2.93723e-06
2.75505e-06
-3.05217e-06
8.75958e-07
-3.19419e-06
-9.88795e-07
-3.36449e-06
-2.87846e-06
-3.57737e-06
-4.80647e-06
-3.88721e-06
-6.79682e-06
-4.37612e-06
-9.0099e-06
-4.98348e-06
-1.18926e-05
-5.09692e-06
-1.58359e-05
-3.54004e-06
-1.89079e-05
-1.34061e-05
1.61313e-07
4.94543e-06
-6.64225e-08
9.53579e-06
-3.93739e-07
1.16083e-05
-6.40249e-07
1.24351e-05
-7.90966e-07
1.21114e-05
-8.76502e-07
1.08019e-05
-9.36465e-07
8.91339e-06
-1.00305e-06
6.8347e-06
-1.09307e-06
4.79896e-06
-1.2139e-06
2.87589e-06
-1.36723e-06
1.02929e-06
-1.55503e-06
-8.00998e-07
-1.77665e-06
-2.65683e-06
-2.032e-06
-4.55112e-06
-2.35212e-06
-6.47671e-06
-2.83399e-06
-8.52802e-06
-3.53698e-06
-1.11896e-05
-4.01313e-06
-1.53597e-05
-3.01753e-06
-1.99035e-05
-1.64237e-05
4.89747e-07
4.45568e-06
6.84608e-07
9.34093e-06
7.27411e-07
1.15654e-05
7.63567e-07
1.2399e-05
8.09713e-07
1.20653e-05
8.39591e-07
1.0772e-05
8.3253e-07
8.92046e-06
7.8008e-07
6.88715e-06
6.84659e-07
4.89438e-06
5.49122e-07
3.01142e-06
3.6986e-07
1.20855e-06
1.40942e-07
-5.7208e-07
-1.40435e-07
-2.37546e-06
-4.80964e-07
-4.21059e-06
-8.88156e-07
-6.06952e-06
-1.41237e-06
-8.00381e-06
-2.20128e-06
-1.04007e-05
-2.9575e-06
-1.46035e-05
-2.46295e-06
-2.0398e-05
-1.88866e-05
7.37176e-07
3.7185e-06
1.324e-06
8.7541e-06
1.71096e-06
1.11785e-05
2.03716e-06
1.20728e-05
2.3089e-06
1.17936e-05
2.49392e-06
1.0587e-05
2.58234e-06
8.83204e-06
2.58486e-06
6.88462e-06
2.51699e-06
4.96226e-06
2.38815e-06
3.14027e-06
2.19303e-06
1.40367e-06
1.91811e-06
-2.97165e-07
1.56197e-06
-2.01931e-06
1.11929e-06
-3.76791e-06
5.8394e-07
-5.53417e-06
-9.97873e-08
-7.32009e-06
-9.74723e-07
-9.52572e-06
-1.9387e-06
-1.36396e-05
-1.93446e-06
-2.04022e-05
-2.08211e-05
8.46894e-07
2.87161e-06
1.76744e-06
7.83356e-06
2.49733e-06
1.04486e-05
3.13061e-06
1.14395e-05
3.67321e-06
1.1251e-05
4.07988e-06
1.01803e-05
4.3328e-06
8.57912e-06
4.44568e-06
6.77174e-06
4.44308e-06
4.96486e-06
4.34227e-06
3.24108e-06
4.14286e-06
1.60307e-06
3.81956e-06
2.61343e-08
3.38229e-06
-1.58204e-06
2.81075e-06
-3.19638e-06
2.1037e-06
-4.82711e-06
1.27586e-06
-6.49225e-06
2.32284e-07
-8.48215e-06
-9.88295e-07
-1.2419e-05
-1.44149e-06
-1.99491e-05
-2.22626e-05
7.82809e-07
2.0888e-06
1.90415e-06
6.71222e-06
2.92865e-06
9.42409e-06
3.88938e-06
1.04787e-05
4.75722e-06
1.03831e-05
5.46445e-06
9.47308e-06
5.97012e-06
8.07345e-06
6.27659e-06
6.46527e-06
6.40606e-06
4.8354e-06
6.37894e-06
3.2682e-06
6.19646e-06
1.78555e-06
5.85193e-06
3.70664e-07
5.32101e-06
-1.05112e-06
4.60541e-06
-2.48077e-06
3.69737e-06
-3.91908e-06
2.62476e-06
-5.41963e-06
1.34118e-06
-7.19857e-06
-1.81543e-07
-1.08962e-05
-9.33262e-07
-1.91973e-05
-2.31958e-05
5.5943e-07
1.52937e-06
1.71092e-06
5.56073e-06
3.02432e-06
8.11069e-06
4.35491e-06
9.14815e-06
5.60546e-06
9.13257e-06
6.67632e-06
8.40222e-06
7.50046e-06
7.24931e-06
8.06426e-06
5.90148e-06
8.38069e-06
4.51897e-06
8.46833e-06
3.18055e-06
8.33504e-06
1.91884e-06
7.97972e-06
7.25985e-07
7.35977e-06
-4.31168e-07
6.49155e-06
-1.61255e-06
5.3623e-06
-2.78983e-06
4.01371e-06
-4.07105e-06
2.50885e-06
-5.69371e-06
9.09723e-07
-9.29712e-06
-1.66471e-07
-1.81211e-05
-2.33623e-05
1.41541e-07
1.38783e-06
1.00014e-06
4.70214e-06
2.44823e-06
6.66261e-06
4.14302e-06
7.45336e-06
5.84226e-06
7.43333e-06
7.35897e-06
6.88552e-06
8.58909e-06
6.01919e-06
9.50203e-06
4.98854e-06
1.00927e-05
3.9283e-06
1.03742e-05
2.89903e-06
1.0353e-05
1.94003e-06
1.0036e-05
1.04303e-06
9.38402e-06
2.20788e-07
8.40939e-06
-6.37922e-07
7.10972e-06
-1.49015e-06
5.53452e-06
-2.49585e-06
3.84025e-06
-3.99944e-06
2.19792e-06
-7.65478e-06
6.36566e-07
-1.65598e-05
-2.27257e-05
-5.09829e-07
1.89766e-06
1.84647e-07
4.00766e-06
1.70488e-06
5.14237e-06
3.73164e-06
5.42661e-06
5.85437e-06
5.31059e-06
7.7895e-06
4.95039e-06
9.39932e-06
4.40937e-06
1.06421e-05
3.74571e-06
1.14996e-05
3.07079e-06
1.19895e-05
2.40918e-06
1.21166e-05
1.81294e-06
1.1902e-05
1.25762e-06
1.13654e-05
7.57415e-07
1.04855e-05
2.41994e-07
9.26663e-06
-2.71311e-07
7.77484e-06
-1.00406e-06
6.19624e-06
-2.42084e-06
4.41835e-06
-5.8769e-06
2.03965e-06
-1.41811e-05
-2.06861e-05
-4.17144e-06
6.0691e-06
-3.6395e-06
3.47572e-06
-1.26881e-06
2.77168e-06
1.4974e-06
2.6604e-06
4.20453e-06
2.60345e-06
6.70988e-06
2.44505e-06
8.90279e-06
2.21646e-06
1.07237e-05
1.9248e-06
1.21549e-05
1.63959e-06
1.32231e-05
1.34096e-06
1.39456e-05
1.09051e-06
1.43664e-05
8.36785e-07
1.44754e-05
6.48387e-07
1.42848e-05
4.32604e-07
1.37813e-05
2.32179e-07
1.29795e-05
-2.02263e-07
1.18736e-05
-1.31489e-06
1.00924e-05
-4.09576e-06
5.62971e-06
-9.71837e-06
-1.50564e-05
6.0691e-06
9.54481e-06
1.23165e-05
1.49769e-05
1.75803e-05
2.00254e-05
2.22419e-05
2.41667e-05
2.58062e-05
2.71472e-05
2.82377e-05
2.90745e-05
2.97229e-05
3.01555e-05
3.03877e-05
3.01854e-05
2.88705e-05
2.47747e-05
1.50564e-05
)
;

boundaryField
{
    movingWall
    {
        type            calculated;
        value           uniform 0;
    }
    fixedWalls
    {
        type            calculated;
        value           uniform 0;
    }
    frontAndBack
    {
        type            empty;
        value           nonuniform List<scalar> 0();
    }
}


// ************************************************************************* //
