/*--------------------------------*- C++ -*----------------------------------*\
| =========                 |                                                 |
| \\      /  F ield         | OpenFOAM: The Open Source CFD Toolbox           |
|  \\    /   O peration     | Version:  2212                                  |
|   \\  /    A nd           | Website:  www.openfoam.com                      |
|    \\/     M anipulation  |                                                 |
\*---------------------------------------------------------------------------*/
FoamFile
{
    version     2.0;
    format      ascii;
    arch        "LSB;label=32;scalar=64";
    class       volScalarField;
    location    "2.065";
    object      p;
}
// * * * * * * * * * * * * * * * * * * * * * * * * * * * * * * * * * * * * * //

dimensions      [0 2 -2 0 0 0 0];

internalField   nonuniform List<scalar> 
400
(
2.26806e-06
-0.00582612
-0.0129643
-0.0184168
-0.0204345
-0.0182409
-0.0117764
-0.00148619
0.011835
0.0271469
0.0432423
0.058821
0.0725767
0.0833066
0.090051
0.0922652
0.090024
0.084242
0.0768788
0.0710652
0.00577994
-0.000219474
-0.00580553
-0.00954437
-0.010601
-0.00843493
-0.00297228
0.00547173
0.0163005
0.0287094
0.0417476
0.0543839
0.0655845
0.074408
0.0801184
0.0823139
0.0810753
0.0770529
0.0712721
0.0653158
0.013334
0.00503228
-0.000996929
-0.00442492
-0.0052749
-0.00326606
0.00160007
0.00902521
0.0184996
0.0293469
0.0407632
0.0518675
0.0617665
0.0696344
0.0748051
0.0768761
0.0758396
0.0720838
0.0658034
0.0575333
0.0201382
0.00869451
0.0012242
-0.00267035
-0.00372408
-0.0018874
0.00272906
0.00978224
0.018778
0.0290926
0.0399896
0.0506518
0.0602308
0.0679139
0.0730012
0.0749995
0.0737637
0.0694539
0.0616007
0.0501002
0.0245008
0.00977166
0.000588122
-0.00398873
-0.00530418
-0.00350939
0.00117258
0.0083323
0.0174596
0.0279467
0.0390826
0.0500676
0.0600467
0.0681629
0.0736243
0.0757956
0.0743668
0.0692875
0.0595232
0.0445347
0.0251766
0.00714858
-0.00380365
-0.00905899
-0.0105141
-0.00850199
-0.0033589
0.00442725
0.0143111
0.0256767
0.0378114
0.0499009
0.0610458
0.0703009
0.0767324
0.0795147
0.0781367
0.0723313
0.0605369
0.0418875
0.0210921
-0.000263862
-0.0129361
-0.0187111
-0.0200317
-0.0174159
-0.0113204
-0.0023218
0.00898825
0.0219739
0.0359073
0.049942
0.0631098
0.074343
0.0825196
0.0865672
0.0857185
0.0794448
0.065618
0.0430693
0.0111412
-0.0136198
-0.0278767
-0.033856
-0.0346053
-0.0308594
-0.0232149
-0.0123472
0.00110274
0.0164817
0.0330503
0.0499313
0.0660811
0.0802876
0.0911984
0.0974278
0.097868
0.0916338
0.075894
0.0491141
-0.00596889
-0.0342682
-0.0498718
-0.0555503
-0.0550919
-0.0495165
-0.0395955
-0.0261153
-0.00975917
0.0088209
0.0288989
0.0495913
0.0697953
0.0881523
0.103045
0.112699
0.115548
0.11019
0.0928321
0.0614092
-0.031859
-0.063878
-0.0804187
-0.085009
-0.0824219
-0.0740802
-0.0609828
-0.0440386
-0.0239535
-0.00133896
0.0231435
0.0486589
0.0740935
0.0979701
0.118394
0.133124
0.139986
0.136816
0.118439
0.0819317
-0.0686693
-0.104605
-0.121346
-0.123592
-0.117517
-0.105128
-0.0877201
-0.0663274
-0.041639
-0.0141576
0.0156036
0.0469512
0.0788538
0.109792
0.137622
0.159584
0.172725
0.173776
0.155519
0.113569
-0.119404
-0.159359
-0.174917
-0.172759
-0.16115
-0.142931
-0.119761
-0.0927788
-0.0625793
-0.0294495
0.00637121
0.0444716
0.0840532
0.123701
0.161134
0.193084
0.215666
0.224075
0.208049
0.160631
-0.18863
-0.232244
-0.24394
-0.233949
-0.213696
-0.187156
-0.156374
-0.122503
-0.0858995
-0.0464738
-0.00401614
0.0415371
0.0898405
0.139828
0.189317
0.234688
0.271073
0.291663
0.281741
0.229774
-0.283976
-0.329306
-0.331833
-0.308281
-0.27471
-0.236441
-0.195766
-0.153611
-0.109841
-0.0637464
-0.0144392
0.0388621
0.096553
0.158275
0.222373
0.285287
0.341396
0.381574
0.384913
0.331833
-0.41932
-0.459672
-0.442351
-0.395793
-0.34213
-0.28774
-0.234617
-0.182931
-0.13161
-0.0789857
-0.0232148
0.0374745
0.104552
0.178837
0.25986
0.344969
0.428615
0.499699
0.529674
0.485391
-0.620532
-0.636744
-0.578677
-0.494193
-0.411241
-0.335658
-0.267781
-0.205978
-0.147537
-0.0893832
-0.0284263
0.0383481
0.113807
0.200471
0.299975
0.412025
0.533029
0.651775
0.732771
0.722395
-0.935924
-0.878515
-0.741741
-0.597948
-0.474393
-0.372659
-0.288868
-0.217762
-0.153953
-0.0924637
-0.0287171
0.0416958
0.123264
0.220718
0.338926
0.482155
0.651997
0.841342
1.01527
1.0975
-1.47642
-1.20663
-0.920503
-0.691387
-0.517304
-0.387543
-0.290061
-0.213337
-0.148123
-0.0872151
-0.0245773
0.0454578
0.128938
0.233071
0.367103
0.542678
0.771293
1.05932
1.40329
1.73014
-2.53965
-1.63055
-1.04444
-0.710958
-0.49575
-0.352092
-0.25453
-0.183583
-0.126169
-0.0735947
-0.0192687
0.0427872
0.119213
0.218783
0.354812
0.547984
0.826393
1.23658
1.91168
2.92419
-4.36666
-2.04463
-0.973541
-0.56318
-0.357846
-0.240146
-0.170119
-0.123782
-0.0874807
-0.0535099
-0.0166541
0.0276609
0.0846077
0.16173
0.272411
0.442099
0.718219
1.22571
2.41104
4.84853
)
;

boundaryField
{
    movingWall
    {
        type            zeroGradient;
    }
    fixedWalls
    {
        type            zeroGradient;
    }
    frontAndBack
    {
        type            empty;
    }
}


// ************************************************************************* //
