/*--------------------------------*- C++ -*----------------------------------*\
| =========                 |                                                 |
| \\      /  F ield         | OpenFOAM: The Open Source CFD Toolbox           |
|  \\    /   O peration     | Version:  2212                                  |
|   \\  /    A nd           | Website:  www.openfoam.com                      |
|    \\/     M anipulation  |                                                 |
\*---------------------------------------------------------------------------*/
FoamFile
{
    version     2.0;
    format      ascii;
    arch        "LSB;label=32;scalar=64";
    class       surfaceScalarField;
    location    "4.52";
    object      phi;
}
// * * * * * * * * * * * * * * * * * * * * * * * * * * * * * * * * * * * * * //

dimensions      [0 3 -1 0 0 0 0];

oriented        oriented;

internalField   nonuniform List<scalar> 
760
(
1.54638e-07
-1.5468e-07
2.90528e-07
-1.35889e-07
3.06166e-07
-1.56379e-08
1.79949e-07
1.26217e-07
-1.23032e-07
3.02982e-07
-6.66142e-07
5.4311e-07
-1.48119e-06
8.15047e-07
-2.48182e-06
1.00063e-06
-3.46753e-06
9.85716e-07
-4.20632e-06
7.38786e-07
-4.53131e-06
3.24992e-07
-4.34534e-06
-1.85973e-07
-3.59155e-06
-7.53787e-07
-2.38336e-06
-1.20819e-06
-9.49923e-07
-1.43344e-06
3.34937e-07
-1.28486e-06
1.07885e-06
-7.43918e-07
1.0267e-06
5.21533e-08
4.5881e-07
5.6789e-07
4.58809e-07
1.22572e-07
-2.77252e-07
7.018e-08
-8.34968e-08
-3.00985e-07
3.55527e-07
-1.07963e-06
9.04859e-07
-2.31045e-06
1.53381e-06
-3.91371e-06
2.14636e-06
-5.64078e-06
2.54212e-06
-7.18013e-06
2.53998e-06
-8.30763e-06
2.11321e-06
-8.9133e-06
1.34446e-06
-8.94994e-06
3.6164e-07
-8.39475e-06
-7.41162e-07
-7.27887e-06
-1.86967e-06
-5.63497e-06
-2.85209e-06
-3.60628e-06
-3.46212e-06
-1.49642e-06
-3.39472e-06
1.69286e-07
-2.40962e-06
8.51806e-07
-6.30364e-07
5.22904e-07
8.96795e-07
9.81713e-07
-1.29414e-07
-1.47838e-07
-6.35413e-07
4.22503e-07
-1.62249e-06
1.34261e-06
-3.13133e-06
2.41369e-06
-5.03744e-06
3.43992e-06
-7.04382e-06
4.15275e-06
-8.83672e-06
4.33502e-06
-1.02361e-05
3.9394e-06
-1.11901e-05
3.06715e-06
-1.16908e-05
1.84522e-06
-1.16873e-05
3.5811e-07
-1.12321e-05
-1.1964e-06
-1.03051e-05
-2.7966e-06
-8.85214e-06
-4.3051e-06
-6.85279e-06
-5.46147e-06
-4.39558e-06
-5.85194e-06
-1.87857e-06
-4.92663e-06
-8.97272e-08
-2.4192e-06
2.9332e-07
5.13748e-07
1.27503e-06
-4.99588e-07
3.51749e-07
-1.5552e-06
1.47812e-06
-3.10691e-06
2.89432e-06
-5.0584e-06
4.36518e-06
-7.15173e-06
5.53326e-06
-9.08095e-06
6.08197e-06
-1.06442e-05
5.89831e-06
-1.17986e-05
5.09377e-06
-1.2572e-05
3.84053e-06
-1.29993e-05
2.2725e-06
-1.30659e-05
4.24782e-07
-1.28295e-05
-1.43281e-06
-1.2252e-05
-3.37413e-06
-1.12314e-05
-5.32574e-06
-9.63645e-06
-7.05638e-06
-7.34251e-06
-8.14588e-06
-4.38768e-06
-7.88147e-06
-1.37715e-06
-5.42973e-06
1.19357e-07
-9.82763e-07
1.39439e-06
-8.57946e-07
1.2097e-06
-2.35009e-06
2.97026e-06
-4.21096e-06
4.75519e-06
-6.24737e-06
6.40159e-06
-8.18014e-06
7.46602e-06
-9.78729e-06
7.68912e-06
-1.09916e-05
7.10267e-06
-1.18194e-05
5.92148e-06
-1.23324e-05
4.35355e-06
-1.26038e-05
2.54391e-06
-1.27243e-05
5.45316e-07
-1.26816e-05
-1.47549e-06
-1.24662e-05
-3.58952e-06
-1.19986e-05
-5.79334e-06
-1.10921e-05
-7.96293e-06
-9.45861e-06
-9.77935e-06
-6.79964e-06
-1.05404e-05
-3.21412e-06
-9.01525e-06
-2.62094e-07
-3.93479e-06
1.1323e-06
-1.08032e-06
2.29002e-06
-2.76813e-06
4.65807e-06
-4.65114e-06
6.6382e-06
-6.49906e-06
8.24951e-06
-8.08866e-06
9.05563e-06
-9.28874e-06
8.8892e-06
-1.00945e-05
7.90842e-06
-1.05707e-05
6.39769e-06
-1.08079e-05
4.59076e-06
-1.09066e-05
2.64259e-06
-1.09885e-05
6.27245e-07
-1.10419e-05
-1.42215e-06
-1.10818e-05
-3.54954e-06
-1.10786e-05
-5.79656e-06
-1.08776e-05
-8.16395e-06
-1.0151e-05
-1.0506e-05
-8.40499e-06
-1.22864e-05
-5.22584e-06
-1.21944e-05
-1.15573e-06
-8.0049e-06
-2.3432e-08
-1.10301e-06
3.39302e-06
-2.74084e-06
6.2959e-06
-4.4288e-06
8.32616e-06
-5.95592e-06
9.77663e-06
-7.16249e-06
1.02622e-05
-7.98548e-06
9.71219e-06
-8.46175e-06
8.38468e-06
-8.67806e-06
6.614e-06
-8.73841e-06
4.65111e-06
-8.74085e-06
2.64503e-06
-8.76913e-06
6.55531e-07
-8.84265e-06
-1.34863e-06
-8.98107e-06
-3.41113e-06
-9.19526e-06
-5.58237e-06
-9.42722e-06
-7.93199e-06
-9.44392e-06
-1.04893e-05
-8.72559e-06
-1.30047e-05
-6.51649e-06
-1.44035e-05
-2.41507e-06
-1.21063e-05
-2.4385e-06
-9.28711e-07
4.32174e-06
-2.33159e-06
7.69878e-06
-3.71091e-06
9.70548e-06
-4.88333e-06
1.09491e-05
-5.74778e-06
1.11266e-05
-6.28661e-06
1.0251e-05
-6.55621e-06
8.65429e-06
-6.64751e-06
6.7053e-06
-6.65735e-06
4.66095e-06
-6.65991e-06
2.64759e-06
-6.69222e-06
6.87844e-07
-6.77194e-06
-1.26891e-06
-6.92039e-06
-3.26268e-06
-7.16799e-06
-5.33477e-06
-7.53087e-06
-7.56911e-06
-7.91594e-06
-1.01042e-05
-7.91119e-06
-1.30095e-05
-6.69904e-06
-1.56157e-05
-3.57386e-06
-1.52315e-05
-6.01236e-06
-6.19868e-07
4.9416e-06
-1.67583e-06
8.75475e-06
-2.70323e-06
1.07329e-05
-3.53726e-06
1.17831e-05
-4.12205e-06
1.17114e-05
-4.46711e-06
1.05961e-05
-4.6308e-06
8.81798e-06
-4.69166e-06
6.76617e-06
-4.72273e-06
4.69202e-06
-4.76861e-06
2.69346e-06
-4.84e-06
7.59235e-07
-4.94381e-06
-1.1651e-06
-5.0903e-06
-3.11619e-06
-5.30846e-06
-5.11661e-06
-5.65325e-06
-7.22432e-06
-6.13677e-06
-9.62072e-06
-6.53786e-06
-1.26084e-05
-6.1139e-06
-1.60396e-05
-3.91367e-06
-1.74317e-05
-9.92602e-06
-2.30015e-07
5.17162e-06
-8.8647e-07
9.4112e-06
-1.55429e-06
1.14007e-05
-2.08048e-06
1.23093e-05
-2.43693e-06
1.20679e-05
-2.64758e-06
1.08067e-05
-2.76044e-06
8.93085e-06
-2.82896e-06
6.83468e-06
-2.89835e-06
4.76141e-06
-2.99111e-06
2.78622e-06
-3.11015e-06
8.7828e-07
-3.25539e-06
-1.01986e-06
-3.42732e-06
-2.94426e-06
-3.6387e-06
-4.90523e-06
-3.9412e-06
-6.92182e-06
-4.41658e-06
-9.14534e-06
-5.00958e-06
-1.20154e-05
-5.11503e-06
-1.59342e-05
-3.55258e-06
-1.89942e-05
-1.34786e-05
1.63287e-07
5.00833e-06
-6.84144e-08
9.6429e-06
-3.9937e-07
1.17317e-05
-6.4858e-07
1.25585e-05
-8.01667e-07
1.2221e-05
-8.89608e-07
1.08947e-05
-9.51925e-07
8.99316e-06
-1.02066e-06
6.90341e-06
-1.11257e-06
4.85332e-06
-1.23538e-06
2.90903e-06
-1.39138e-06
1.03428e-06
-1.58273e-06
-8.28509e-07
-1.80835e-06
-2.71864e-06
-2.06673e-06
-4.64686e-06
-2.38632e-06
-6.60222e-06
-2.86051e-06
-8.67115e-06
-3.55194e-06
-1.1324e-05
-4.02133e-06
-1.54648e-05
-3.02312e-06
-1.99924e-05
-1.65017e-05
4.98419e-07
4.50991e-06
6.95674e-07
9.44565e-06
7.38807e-07
1.16885e-05
7.74568e-07
1.25227e-05
8.19808e-07
1.21757e-05
8.48933e-07
1.08655e-05
8.41943e-07
9.00015e-06
7.90506e-07
6.95485e-06
6.96153e-07
4.94767e-06
5.60946e-07
3.04423e-06
3.80277e-07
1.21495e-06
1.47951e-07
-5.96184e-07
-1.38147e-07
-2.43254e-06
-4.84648e-07
-4.30036e-06
-8.96746e-07
-6.19012e-06
-1.42046e-06
-8.14743e-06
-2.20304e-06
-1.05414e-05
-2.95524e-06
-1.47126e-05
-2.46168e-06
-2.0486e-05
-1.89634e-05
7.52212e-07
3.7577e-06
1.34751e-06
8.85035e-06
1.73893e-06
1.12971e-05
2.06748e-06
1.21942e-05
2.34e-06
1.19032e-05
2.52577e-06
1.06798e-05
2.61617e-06
8.90975e-06
2.62197e-06
6.94905e-06
2.55776e-06
5.01189e-06
2.43124e-06
3.17076e-06
2.23573e-06
1.41045e-06
1.95736e-06
-3.17809e-07
1.59564e-06
-2.07082e-06
1.14549e-06
-3.85021e-06
6.0184e-07
-5.64647e-06
-8.82083e-08
-7.45738e-06
-9.62205e-07
-9.66738e-06
-1.92541e-06
-1.37494e-05
-1.92818e-06
-2.04832e-05
-2.08916e-05
8.65816e-07
2.89189e-06
1.80124e-06
7.91492e-06
2.54036e-06
1.0558e-05
3.1794e-06
1.15551e-05
3.72548e-06
1.13571e-05
4.13488e-06
1.02704e-05
4.39127e-06
8.65336e-06
4.50869e-06
6.83163e-06
4.51078e-06
5.0098e-06
4.41353e-06
3.26801e-06
4.21553e-06
1.60846e-06
3.8875e-06
1.02181e-08
3.44505e-06
-1.62837e-06
2.86487e-06
-3.27003e-06
2.14694e-06
-4.92854e-06
1.30846e-06
-6.6189e-06
2.57378e-07
-8.6163e-06
-9.66943e-07
-1.25251e-05
-1.43138e-06
-2.00187e-05
-2.2323e-05
8.01707e-07
2.09018e-06
1.94399e-06
6.77264e-06
2.98288e-06
9.5191e-06
3.95342e-06
1.05846e-05
4.82811e-06
1.04825e-05
5.54056e-06
9.55793e-06
6.05126e-06
8.14266e-06
6.36322e-06
6.51967e-06
6.49799e-06
4.87502e-06
6.47464e-06
3.29135e-06
6.29271e-06
1.79039e-06
5.94751e-06
3.55422e-07
5.4101e-06
-1.09097e-06
4.68496e-06
-2.54489e-06
3.76408e-06
-4.00765e-06
2.67571e-06
-5.53054e-06
1.37753e-06
-7.31812e-06
-1.61523e-07
-1.0986e-05
-9.18386e-07
-1.92619e-05
-2.32413e-05
5.74064e-07
1.51612e-06
1.75005e-06
5.59665e-06
3.08369e-06
8.18546e-06
4.43068e-06
9.2376e-06
5.69359e-06
9.21954e-06
6.77366e-06
8.47786e-06
7.60524e-06
7.31107e-06
8.17567e-06
5.94924e-06
8.49781e-06
4.55289e-06
8.5893e-06
3.19986e-06
8.45735e-06
1.92234e-06
8.09985e-06
7.12922e-07
7.47333e-06
-4.64449e-07
6.59441e-06
-1.66597e-06
5.4501e-06
-2.86335e-06
4.0813e-06
-4.16174e-06
2.55742e-06
-5.79424e-06
9.46382e-07
-9.37497e-06
-1.49334e-07
-1.81662e-05
-2.33907e-05
1.50127e-07
1.36599e-06
1.03252e-06
4.71425e-06
2.50453e-06
6.71345e-06
4.22157e-06
7.52056e-06
5.93919e-06
7.50193e-06
7.46999e-06
6.94705e-06
8.71119e-06
6.06987e-06
9.63309e-06
5.02734e-06
1.0231e-05
3.95494e-06
1.05173e-05
2.91356e-06
1.04983e-05
1.94138e-06
1.018e-05
1.03124e-06
9.51898e-06
1.9654e-07
8.53337e-06
-6.8035e-07
7.21575e-06
-1.54573e-06
5.61684e-06
-2.56283e-06
3.89562e-06
-4.07301e-06
2.23117e-06
-7.71052e-06
6.49468e-07
-1.65845e-05
-2.27412e-05
-5.15846e-07
1.88183e-06
1.98107e-07
4.0003e-06
1.74791e-06
5.16364e-06
3.80534e-06
5.46314e-06
5.95511e-06
5.35215e-06
7.91155e-06
4.99062e-06
9.53804e-06
4.44338e-06
1.07934e-05
3.77199e-06
1.16602e-05
3.08813e-06
1.21555e-05
2.41832e-06
1.22834e-05
1.81343e-06
1.20644e-05
1.25029e-06
1.15206e-05
7.40329e-07
1.06255e-05
2.14698e-07
9.38336e-06
-3.03566e-07
7.86438e-06
-1.04386e-06
6.25429e-06
-2.46292e-06
4.44968e-06
-5.90591e-06
2.05269e-06
-1.41875e-05
-2.06885e-05
-4.17781e-06
6.05965e-06
-3.64135e-06
3.46383e-06
-1.2502e-06
2.7725e-06
1.54298e-06
2.66995e-06
4.27703e-06
2.6181e-06
6.80637e-06
2.46128e-06
9.0185e-06
2.23125e-06
1.08536e-05
1.93685e-06
1.22939e-05
1.64789e-06
1.33665e-05
1.34574e-06
1.40886e-05
1.09125e-06
1.4505e-05
8.33942e-07
1.46039e-05
6.41397e-07
1.43955e-05
4.23068e-07
1.38718e-05
2.20131e-07
1.30481e-05
-2.20087e-07
1.19141e-05
-1.32896e-06
1.0109e-05
-4.10084e-06
5.63651e-06
-9.71494e-06
-1.5052e-05
6.05965e-06
9.52348e-06
1.2296e-05
1.49659e-05
1.7584e-05
2.00453e-05
2.22766e-05
2.42134e-05
2.58613e-05
2.7207e-05
2.82983e-05
2.91322e-05
2.97736e-05
3.01967e-05
3.04168e-05
3.01968e-05
2.88678e-05
2.47669e-05
1.5052e-05
)
;

boundaryField
{
    movingWall
    {
        type            calculated;
        value           uniform 0;
    }
    fixedWalls
    {
        type            calculated;
        value           uniform 0;
    }
    frontAndBack
    {
        type            empty;
        value           nonuniform List<scalar> 0();
    }
}


// ************************************************************************* //
