/*--------------------------------*- C++ -*----------------------------------*\
| =========                 |                                                 |
| \\      /  F ield         | OpenFOAM: The Open Source CFD Toolbox           |
|  \\    /   O peration     | Version:  2212                                  |
|   \\  /    A nd           | Website:  www.openfoam.com                      |
|    \\/     M anipulation  |                                                 |
\*---------------------------------------------------------------------------*/
FoamFile
{
    version     2.0;
    format      ascii;
    arch        "LSB;label=32;scalar=64";
    class       volVectorField;
    location    "3.35";
    object      U;
}
// * * * * * * * * * * * * * * * * * * * * * * * * * * * * * * * * * * * * * //

dimensions      [0 1 -1 0 0 0 0];

internalField   nonuniform List<vector> 
400
(
(0.0016128 -0.00162622 0)
(0.00461963 -0.0018199 0)
(0.00625521 -0.00116104 0)
(0.0053122 -0.00054865 0)
(0.00125895 0.000207717 0)
(-0.00698032 0.00173086 0)
(-0.0204499 0.00466817 0)
(-0.0389454 0.00848181 0)
(-0.0597776 0.0110063 0)
(-0.0778562 0.0103294 0)
(-0.0885354 0.0067296 0)
(-0.0893954 0.00173263 0)
(-0.0795427 -0.00346729 0)
(-0.059772 -0.00808317 0)
(-0.0337657 -0.0106605 0)
(-0.00591276 -0.00967497 0)
(0.0159188 -0.00481913 0)
(0.0237669 0.00263396 0)
(0.015836 0.00631055 0)
(0.00425274 0.00462561 0)
(0.0015988 -0.00481332 0)
(0.00283301 -0.00376755 0)
(-0.000828658 0.000686773 0)
(-0.0115784 0.00637198 0)
(-0.0312253 0.0137724 0)
(-0.0602349 0.0232113 0)
(-0.0951733 0.0322781 0)
(-0.129244 0.0363486 0)
(-0.156491 0.033025 0)
(-0.173597 0.0232335 0)
(-0.179112 0.00925115 0)
(-0.173035 -0.00659098 0)
(-0.155939 -0.0225658 0)
(-0.128516 -0.0362021 0)
(-0.0930065 -0.0438805 0)
(-0.0521247 -0.041352 0)
(-0.0117668 -0.0262393 0)
(0.0162697 -0.00160017 0)
(0.0174744 0.0157771 0)
(0.00546573 0.0145342 0)
(-0.000343777 -0.00532055 0)
(-0.00555403 0.00117415 0)
(-0.019598 0.0141945 0)
(-0.0439505 0.0305957 0)
(-0.0789365 0.0483231 0)
(-0.11994 0.0629439 0)
(-0.159476 0.0692505 0)
(-0.192053 0.0650627 0)
(-0.215491 0.0516594 0)
(-0.229165 0.0314668 0)
(-0.23306 0.00680245 0)
(-0.227805 -0.0203118 0)
(-0.213709 -0.0477344 0)
(-0.190277 -0.0718951 0)
(-0.157232 -0.0877055 0)
(-0.114548 -0.0881803 0)
(-0.0640317 -0.066542 0)
(-0.0139543 -0.0229822 0)
(0.00926874 0.0172571 0)
(0.00414478 0.0231399 0)
(-0.00345031 0.000946798 0)
(-0.0172814 0.0173647 0)
(-0.0427723 0.0407749 0)
(-0.0781109 0.0667014 0)
(-0.120473 0.0892318 0)
(-0.162687 0.101919 0)
(-0.198377 0.101314 0)
(-0.225489 0.0885679 0)
(-0.244231 0.0667565 0)
(-0.255189 0.0385662 0)
(-0.259186 0.00586946 0)
(-0.257024 -0.0300128 0)
(-0.248645 -0.0668943 0)
(-0.233005 -0.101862 0)
(-0.208119 -0.129512 0)
(-0.171296 -0.141106 0)
(-0.120031 -0.124554 0)
(-0.0563128 -0.0706 0)
(-0.0011132 0.00290775 0)
(0.00472841 0.0277147 0)
(-0.00652291 0.0150159 0)
(-0.0280948 0.0436437 0)
(-0.0618796 0.0755612 0)
(-0.10215 0.106622 0)
(-0.144211 0.128678 0)
(-0.181084 0.135909 0)
(-0.209215 0.127711 0)
(-0.228871 0.107514 0)
(-0.241316 0.0791526 0)
(-0.248254 0.0454166 0)
(-0.251389 0.00785115 0)
(-0.251678 -0.0327582 0)
(-0.248919 -0.0752976 0)
(-0.242518 -0.118474 0)
(-0.229682 -0.15838 0)
(-0.205786 -0.18662 0)
(-0.164839 -0.18795 0)
(-0.102234 -0.141696 0)
(-0.0220471 -0.0390566 0)
(0.0072543 0.0265321 0)
(-0.00828381 0.0345837 0)
(-0.0342755 0.0754196 0)
(-0.0713089 0.112627 0)
(-0.110658 0.14474 0)
(-0.147374 0.163064 0)
(-0.175997 0.163427 0)
(-0.195392 0.147792 0)
(-0.207013 0.121119 0)
(-0.212823 0.0877674 0)
(-0.215306 0.0507467 0)
(-0.216495 0.01154 0)
(-0.217446 -0.0294641 0)
(-0.218383 -0.0727749 0)
(-0.219364 -0.118841 0)
(-0.218176 -0.166493 0)
(-0.209682 -0.210268 0)
(-0.185802 -0.235977 0)
(-0.138013 -0.216446 0)
(-0.0619744 -0.117956 0)
(0.00564673 0.0138045 0)
(-0.00804365 0.0560994 0)
(-0.0343624 0.108029 0)
(-0.0699923 0.14748 0)
(-0.104551 0.177706 0)
(-0.133809 0.190586 0)
(-0.154065 0.183736 0)
(-0.165833 0.161171 0)
(-0.171161 0.128959 0)
(-0.172449 0.0919194 0)
(-0.172249 0.0531247 0)
(-0.172168 0.013848 0)
(-0.172947 -0.0258958 0)
(-0.17516 -0.0673229 0)
(-0.179343 -0.111845 0)
(-0.184797 -0.160664 0)
(-0.187794 -0.212639 0)
(-0.180364 -0.258694 0)
(-0.152524 -0.272536 0)
(-0.0980504 -0.20399 0)
(-0.0088019 -0.014801 0)
(-0.0059326 0.0760867 0)
(-0.0289182 0.137882 0)
(-0.0597861 0.177635 0)
(-0.087716 0.204439 0)
(-0.109456 0.211362 0)
(-0.122858 0.197649 0)
(-0.129349 0.169 0)
(-0.131191 0.13236 0)
(-0.130854 0.0928177 0)
(-0.130368 0.0531907 0)
(-0.130515 0.0142548 0)
(-0.131518 -0.0244009 0)
(-0.13387 -0.0639132 0)
(-0.138288 -0.105674 0)
(-0.145363 -0.151822 0)
(-0.153684 -0.204788 0)
(-0.157116 -0.262487 0)
(-0.145246 -0.305096 0)
(-0.111024 -0.274669 0)
(-0.0304676 -0.0745661 0)
(-0.00261933 0.0915863 0)
(-0.01977 0.162372 0)
(-0.0438832 0.201553 0)
(-0.0646635 0.224365 0)
(-0.0797272 0.225765 0)
(-0.0880808 0.206416 0)
(-0.0914846 0.173196 0)
(-0.0920587 0.133603 0)
(-0.0919339 0.0927873 0)
(-0.0923706 0.0531241 0)
(-0.0934747 0.0147619 0)
(-0.0951629 -0.0231435 0)
(-0.0976368 -0.0615002 0)
(-0.101437 -0.101166 0)
(-0.107738 -0.143977 0)
(-0.117246 -0.194066 0)
(-0.126639 -0.255826 0)
(-0.125363 -0.320055 0)
(-0.106519 -0.331639 0)
(-0.0369122 -0.161296 0)
(0.00120434 0.100386 0)
(-0.00860608 0.179756 0)
(-0.0248639 0.218751 0)
(-0.0385702 0.238272 0)
(-0.0478962 0.235521 0)
(-0.05264 0.212181 0)
(-0.0544008 0.175911 0)
(-0.0548286 0.134605 0)
(-0.0554806 0.0933685 0)
(-0.0569699 0.054062 0)
(-0.0590836 0.016264 0)
(-0.0616633 -0.0211613 0)
(-0.0647193 -0.0589826 0)
(-0.0684723 -0.0975733 0)
(-0.0739075 -0.137847 0)
(-0.0826544 -0.183752 0)
(-0.0947071 -0.243777 0)
(-0.0999152 -0.320624 0)
(-0.0945792 -0.368931 0)
(-0.0307169 -0.239878 0)
(0.0049561 0.101446 0)
(0.00293311 0.189068 0)
(-0.00516309 0.228999 0)
(-0.0121023 0.246106 0)
(-0.0163887 0.240525 0)
(-0.0181771 0.214938 0)
(-0.0187252 0.177344 0)
(-0.0190833 0.135641 0)
(-0.0202198 0.0947026 0)
(-0.0223406 0.056006 0)
(-0.0251374 0.0188462 0)
(-0.0285203 -0.0180066 0)
(-0.0325117 -0.0553463 0)
(-0.0370937 -0.0933656 0)
(-0.0428578 -0.132175 0)
(-0.051152 -0.174516 0)
(-0.0648536 -0.230494 0)
(-0.07391 -0.314047 0)
(-0.0809184 -0.393241 0)
(-0.0228604 -0.304111 0)
(0.0081277 0.0951327 0)
(0.013805 0.189974 0)
(0.0137433 0.232415 0)
(0.0133922 0.248781 0)
(0.0140451 0.242186 0)
(0.0152864 0.216095 0)
(0.0162014 0.178519 0)
(0.0163038 0.137197 0)
(0.0151854 0.096788 0)
(0.0128942 0.0587007 0)
(0.00973369 0.0222542 0)
(0.0056987 -0.0137666 0)
(0.000643642 -0.0502573 0)
(-0.00532907 -0.0874423 0)
(-0.0126265 -0.125087 0)
(-0.0215533 -0.164488 0)
(-0.0374119 -0.21518 0)
(-0.0489064 -0.300247 0)
(-0.0679509 -0.405062 0)
(-0.0144987 -0.356956 0)
(0.00985668 0.0826057 0)
(0.0226127 0.182538 0)
(0.0301414 0.228577 0)
(0.0359827 0.245315 0)
(0.0415865 0.238925 0)
(0.0465133 0.213763 0)
(0.04992 0.177522 0)
(0.0515336 0.137561 0)
(0.0513024 0.0983429 0)
(0.0494522 0.0613306 0)
(0.0462707 0.026035 0)
(0.0417042 -0.00868137 0)
(0.0355776 -0.0437733 0)
(0.0279627 -0.0795418 0)
(0.018124 -0.115711 0)
(0.00704655 -0.152719 0)
(-0.0121924 -0.198737 0)
(-0.0248868 -0.28214 0)
(-0.0561632 -0.40768 0)
(-0.00625861 -0.398976 0)
(0.00937415 0.0660586 0)
(0.0279096 0.167179 0)
(0.0428857 0.217736 0)
(0.0551823 0.236615 0)
(0.0662971 0.232044 0)
(0.0758571 0.209274 0)
(0.0829592 0.17554 0)
(0.0872664 0.137702 0)
(0.0888524 0.100108 0)
(0.0880469 0.0644273 0)
(0.0852046 0.0305462 0)
(0.0801907 -0.00254303 0)
(0.0728291 -0.0355338 0)
(0.0633634 -0.0690703 0)
(0.050527 -0.103012 0)
(0.0360044 -0.137389 0)
(0.0120084 -0.178742 0)
(-0.000993817 -0.259024 0)
(-0.0453523 -0.403644 0)
(0.002563 -0.433727 0)
(0.00655854 0.0490235 0)
(0.0280924 0.146182 0)
(0.0492433 0.199593 0)
(0.0677086 0.220124 0)
(0.0848733 0.217515 0)
(0.100324 0.19791 0)
(0.112776 0.167906 0)
(0.121515 0.133576 0)
(0.126446 0.0989662 0)
(0.127851 0.0658525 0)
(0.126023 0.0345028 0)
(0.121085 0.00412884 0)
(0.112554 -0.0256985 0)
(0.101068 -0.0558456 0)
(0.0844855 -0.0864193 0)
(0.0658233 -0.118125 0)
(0.0364334 -0.155781 0)
(0.0225429 -0.23323 0)
(-0.0351607 -0.396254 0)
(0.0131658 -0.462441 0)
(0.00224126 0.034917 0)
(0.0225052 0.122072 0)
(0.0489328 0.176645 0)
(0.0740156 0.199046 0)
(0.0981723 0.198803 0)
(0.120634 0.182835 0)
(0.139728 0.157322 0)
(0.154214 0.12745 0)
(0.163664 0.0968333 0)
(0.168306 0.0672244 0)
(0.168124 0.0392305 0)
(0.163851 0.0124498 0)
(0.154167 -0.0134975 0)
(0.140709 -0.0393555 0)
(0.119985 -0.0654952 0)
(0.0970829 -0.09354 0)
(0.062072 -0.128383 0)
(0.0455219 -0.204232 0)
(-0.0235922 -0.385172 0)
(0.0280883 -0.484222 0)
(-0.00333747 0.0294062 0)
(0.00923784 0.100678 0)
(0.0352398 0.146237 0)
(0.0662744 0.166268 0)
(0.0984638 0.167418 0)
(0.129567 0.155441 0)
(0.15703 0.135479 0)
(0.179114 0.111602 0)
(0.194788 0.0868627 0)
(0.204386 0.0628047 0)
(0.207149 0.0401988 0)
(0.204788 0.0188983 0)
(0.194729 -0.00142841 0)
(0.180409 -0.0213541 0)
(0.156244 -0.0413709 0)
(0.1304 -0.064643 0)
(0.0899445 -0.0983454 0)
(0.0683415 -0.177379 0)
(-0.00524947 -0.36883 0)
(0.0517225 -0.490937 0)
(-0.0134539 0.0193115 0)
(-0.00751978 0.0882136 0)
(0.0179738 0.122936 0)
(0.0541381 0.135257 0)
(0.0942729 0.134565 0)
(0.133737 0.125475 0)
(0.169216 0.111109 0)
(0.198399 0.0937081 0)
(0.219825 0.0756671 0)
(0.234516 0.0579671 0)
(0.240418 0.0416053 0)
(0.241272 0.0264112 0)
(0.232251 0.0126136 0)
(0.220771 -0.000727396 0)
(0.196564 -0.0143063 0)
(0.173567 -0.0329851 0)
(0.130423 -0.0656623 0)
(0.106168 -0.144674 0)
(0.0366965 -0.325893 0)
(0.0920611 -0.455738 0)
(-0.105647 0.082981 0)
(-0.0775007 0.0693774 0)
(-0.0488476 0.0728356 0)
(0.00262022 0.0768294 0)
(0.0551233 0.0769186 0)
(0.106877 0.0726483 0)
(0.153205 0.065466 0)
(0.194824 0.0562823 0)
(0.226453 0.0468845 0)
(0.254225 0.0375049 0)
(0.269878 0.0291515 0)
(0.285043 0.0214415 0)
(0.285737 0.0149776 0)
(0.290263 0.00880684 0)
(0.274795 0.00207415 0)
(0.268392 -0.00904064 0)
(0.229973 -0.034672 0)
(0.217006 -0.0949799 0)
(0.149934 -0.229694 0)
(0.170618 -0.341514 0)
(0.13019 0.103922 0)
(0.158794 0.0756744 0)
(0.212896 0.0537068 0)
(0.271322 0.0419798 0)
(0.323525 0.0361262 0)
(0.375388 0.0320484 0)
(0.419384 0.0289605 0)
(0.46412 0.0256046 0)
(0.496783 0.0229424 0)
(0.531717 0.0197737 0)
(0.551025 0.0176519 0)
(0.576842 0.014747 0)
(0.583156 0.0133487 0)
(0.601797 0.010561 0)
(0.593664 0.00963092 0)
(0.602669 0.00522683 0)
(0.567392 0.000287216 0)
(0.547767 -0.0181829 0)
(0.436161 -0.0503836 0)
(0.336997 -0.101412 0)
)
;

boundaryField
{
    movingWall
    {
        type            fixedValue;
        value           uniform (1 0 0);
    }
    fixedWalls
    {
        type            noSlip;
    }
    frontAndBack
    {
        type            empty;
    }
}


// ************************************************************************* //
