/*--------------------------------*- C++ -*----------------------------------*\
| =========                 |                                                 |
| \\      /  F ield         | OpenFOAM: The Open Source CFD Toolbox           |
|  \\    /   O peration     | Version:  2212                                  |
|   \\  /    A nd           | Website:  www.openfoam.com                      |
|    \\/     M anipulation  |                                                 |
\*---------------------------------------------------------------------------*/
FoamFile
{
    version     2.0;
    format      ascii;
    arch        "LSB;label=32;scalar=64";
    class       volVectorField;
    location    "0.105";
    object      U;
}
// * * * * * * * * * * * * * * * * * * * * * * * * * * * * * * * * * * * * * //

dimensions      [0 1 -1 0 0 0 0];

internalField   nonuniform List<vector> 
400
(
(-0.000325558 0.000320105 0)
(-0.00117654 0.000478923 0)
(-0.00222672 0.000484389 0)
(-0.00323541 0.000455977 0)
(-0.00416361 0.000414936 0)
(-0.00499194 0.000363889 0)
(-0.00570044 0.000303725 0)
(-0.00627083 0.00023539 0)
(-0.00668714 0.000159969 0)
(-0.00693596 7.87074e-05 0)
(-0.00700674 -6.94002e-06 0)
(-0.00689232 -9.53015e-05 0)
(-0.00658954 -0.000184228 0)
(-0.00609999 -0.000271264 0)
(-0.00543087 -0.000353563 0)
(-0.00459575 -0.000427963 0)
(-0.00361458 -0.000491047 0)
(-0.00251168 -0.000537351 0)
(-0.00134167 -0.000541628 0)
(-0.000375211 -0.000370093 0)
(-0.000503912 0.00118649 0)
(-0.00176598 0.00171384 0)
(-0.00327451 0.00172561 0)
(-0.00471963 0.00162263 0)
(-0.00604681 0.00147352 0)
(-0.00722749 0.00128828 0)
(-0.00823274 0.00107079 0)
(-0.00903697 0.000824897 0)
(-0.00961847 0.000554763 0)
(-0.00995947 0.000265014 0)
(-0.0100465 -3.91174e-05 0)
(-0.00987085 -0.000351561 0)
(-0.00942913 -0.000665028 0)
(-0.00872468 -0.000971022 0)
(-0.00776833 -0.00125973 0)
(-0.00657965 -0.00152019 0)
(-0.00518724 -0.00174024 0)
(-0.00362607 -0.0019001 0)
(-0.0019696 -0.00191669 0)
(-0.000565596 -0.00134721 0)
(-0.000547613 0.00231189 0)
(-0.00192049 0.00327335 0)
(-0.00355817 0.00328689 0)
(-0.00512328 0.00308888 0)
(-0.00655933 0.0028021 0)
(-0.00783661 0.00244619 0)
(-0.00892441 0.00202945 0)
(-0.00979572 0.00155965 0)
(-0.0104277 0.00104497 0)
(-0.0108015 0.00049426 0)
(-0.0109026 -8.26863e-05 0)
(-0.0107209 -0.000674605 0)
(-0.010252 -0.00126814 0)
(-0.00949786 -0.00184758 0)
(-0.00846845 -0.00239463 0)
(-0.00718326 -0.00288861 0)
(-0.00567198 -0.003306 0)
(-0.00397148 -0.00360876 0)
(-0.00216038 -0.00364619 0)
(-0.000620882 -0.00260837 0)
(-0.000582293 0.00350634 0)
(-0.00204599 0.00492923 0)
(-0.00379386 0.00494239 0)
(-0.00546278 0.00464245 0)
(-0.00699368 0.00420989 0)
(-0.00835618 0.00367426 0)
(-0.0095187 0.00304839 0)
(-0.0104536 0.00234411 0)
(-0.0111372 0.00157359 0)
(-0.01155 0.000749667 0)
(-0.0116759 -0.000113643 0)
(-0.0115028 -0.00100049 0)
(-0.0110235 -0.00189164 0)
(-0.010237 -0.00276421 0)
(-0.00915041 -0.00359109 0)
(-0.0077809 -0.00434091 0)
(-0.0061576 -0.00497721 0)
(-0.00431888 -0.00544132 0)
(-0.00235106 -0.00550826 0)
(-0.000675295 -0.00396743 0)
(-0.000629332 0.00478109 0)
(-0.00221291 0.00670061 0)
(-0.00410497 0.00671269 0)
(-0.00591034 0.00630316 0)
(-0.00756595 0.00571527 0)
(-0.00904045 0.00498935 0)
(-0.0103014 0.00414316 0)
(-0.0113206 0.00319272 0)
(-0.0120741 0.00215398 0)
(-0.0125412 0.00104327 0)
(-0.0127043 -0.000121926 0)
(-0.0125484 -0.00132223 0)
(-0.0120619 -0.00253311 0)
(-0.0112392 -0.00372505 0)
(-0.0100821 -0.0048618 0)
(-0.00860365 -0.00589997 0)
(-0.00683076 -0.00678747 0)
(-0.00480346 -0.00744047 0)
(-0.00261952 -0.00754855 0)
(-0.000752857 -0.0054577 0)
(-0.000692036 0.00617093 0)
(-0.00243367 0.00863375 0)
(-0.00451445 0.00864335 0)
(-0.00649752 0.00811316 0)
(-0.00831461 0.007356 0)
(-0.0099333 0.00642458 0)
(-0.0113205 0.00534232 0)
(-0.0124482 0.0041297 0)
(-0.0132922 0.00280621 0)
(-0.0138313 0.00139092 0)
(-0.0140466 -9.62957e-05 0)
(-0.0139189 -0.00163451 0)
(-0.0134308 -0.00319485 0)
(-0.0125698 -0.00474226 0)
(-0.0113293 -0.00623148 0)
(-0.00971448 -0.00760544 0)
(-0.00774729 -0.00879259 0)
(-0.00546831 -0.00967651 0)
(-0.00299067 -0.00984461 0)
(-0.000860817 -0.00713953 0)
(-0.000772409 0.00771085 0)
(-0.00271553 0.0107761 0)
(-0.00503533 0.01078 0)
(-0.00724147 0.0101135 0)
(-0.00925931 0.00916802 0)
(-0.0110556 0.00801089 0)
(-0.0125976 0.00667245 0)
(-0.013858 0.00517806 0)
(-0.0148141 0.00355038 0)
(-0.0154448 0.00181014 0)
(-0.0157308 -2.20724e-05 0)
(-0.015648 -0.00192623 0)
(-0.0151706 -0.00387154 0)
(-0.0142768 -0.00581977 0)
(-0.0129468 -0.00771755 0)
(-0.0111721 -0.00949277 0)
(-0.00896407 -0.0110492 0)
(-0.00636024 -0.0122271 0)
(-0.00349302 -0.0124867 0)
(-0.00100784 -0.0090839 0)
(-0.000873287 0.0094402 0)
(-0.00306797 0.013181 0)
(-0.00568391 0.0131728 0)
(-0.00816293 0.012348 0)
(-0.0104228 0.0111883 0)
(-0.0124305 0.00977921 0)
(-0.0141547 0.00815969 0)
(-0.0155716 0.00636071 0)
(-0.0166614 0.0044076 0)
(-0.017405 0.00232087 0)
(-0.0177841 0.000118022 0)
(-0.0177695 -0.00217914 0)
(-0.0173255 -0.00454842 0)
(-0.016417 -0.00695126 0)
(-0.0150043 -0.00932879 0)
(-0.0130558 -0.0115936 0)
(-0.0105619 -0.0136189 0)
(-0.00754875 -0.0151857 0)
(-0.00417072 -0.0155898 0)
(-0.00120772 -0.0113834 0)
(-0.000998957 0.0114054 0)
(-0.00350483 0.0159107 0)
(-0.00648316 0.0158784 0)
(-0.00929017 0.0148639 0)
(-0.011835 0.0134549 0)
(-0.0140866 0.0117596 0)
(-0.0160181 0.00982852 0)
(-0.0176121 0.00769931 0)
(-0.0188559 0.00539955 0)
(-0.0197363 0.00294774 0)
(-0.0202327 0.00035578 0)
(-0.0203163 -0.00236311 0)
(-0.0199446 -0.00519653 0)
(-0.0190591 -0.00811398 0)
(-0.0175921 -0.0110581 0)
(-0.0154752 -0.0139294 0)
(-0.0126593 -0.0165654 0)
(-0.00914122 -0.0186664 0)
(-0.00509528 -0.0193065 0)
(-0.00148355 -0.0141662 0)
(-0.00115602 0.0136634 0)
(-0.00404674 0.0190398 0)
(-0.00746632 0.0189619 0)
(-0.0106626 0.0177121 0)
(-0.0135357 0.0160051 0)
(-0.0160601 0.0139789 0)
(-0.018218 0.0116991 0)
(-0.0200035 0.00921153 0)
(-0.0214159 0.0065455 0)
(-0.0224516 0.00371515 0)
(-0.0230978 0.000722691 0)
(-0.0233248 -0.00243684 0)
(-0.0230794 -0.00576756 0)
(-0.0222818 -0.00925944 0)
(-0.0208243 -0.01287 0)
(-0.0185809 -0.0164986 0)
(-0.0154318 -0.0199469 0)
(-0.0113081 -0.0228075 0)
(-0.00638803 -0.0238462 0)
(-0.00187627 -0.0176202 0)
(-0.00135496 0.0162872 0)
(-0.00472534 0.0226608 0)
(-0.00868247 0.0224988 0)
(-0.0123362 0.0209464 0)
(-0.015579 0.0188735 0)
(-0.0183973 0.0164572 0)
(-0.0207899 0.0137832 0)
(-0.0227701 0.010907 0)
(-0.0243566 0.00785904 0)
(-0.0255635 0.00464599 0)
(-0.026389 0.0012543 0)
(-0.0268111 -0.00234452 0)
(-0.0267721 -0.00618688 0)
(-0.0261669 -0.0103004 0)
(-0.0248385 -0.0146811 0)
(-0.022577 -0.0192527 0)
(-0.0191417 -0.0237961 0)
(-0.0143282 -0.0277704 0)
(-0.00826682 -0.0295042 0)
(-0.00246436 -0.0220405 0)
(-0.00161309 0.0193753 0)
(-0.00559067 0.0268926 0)
(-0.010206 0.0265785 0)
(-0.0143917 0.0246222 0)
(-0.0180385 0.0220874 0)
(-0.0211574 0.0192024 0)
(-0.0237748 0.0160779 0)
(-0.025934 0.0127812 0)
(-0.0276831 0.00934259 0)
(-0.0290627 0.00575801 0)
(-0.0300949 0.00199286 0)
(-0.030773 -0.0020144 0)
(-0.031043 -0.0063468 0)
(-0.0307847 -0.0110943 0)
(-0.0297885 -0.0163294 0)
(-0.027732 -0.0220523 0)
(-0.0241819 -0.028074 0)
(-0.0186706 -0.0337187 0)
(-0.0111488 -0.0367014 0)
(-0.00341175 -0.0279277 0)
(-0.00196018 0.0230687 0)
(-0.00672462 0.0318947 0)
(-0.0121523 0.0313073 0)
(-0.0169473 0.0287924 0)
(-0.0210165 0.0256594 0)
(-0.024417 0.0222009 0)
(-0.0272204 0.0185572 0)
(-0.0295143 0.0148072 0)
(-0.0313885 0.0109791 0)
(-0.0329218 0.00705485 0)
(-0.0341705 0.00297408 0)
(-0.0351611 -0.0013634 0)
(-0.0358639 -0.00610371 0)
(-0.0361638 -0.0114256 0)
(-0.0358165 -0.0175322 0)
(-0.0343763 -0.0245918 0)
(-0.0311305 -0.0325716 0)
(-0.0251409 -0.0407477 0)
(-0.0158827 -0.0460438 0)
(-0.0050894 -0.0362392 0)
(-0.0024497 0.0275821 0)
(-0.00826601 0.0378889 0)
(-0.0147048 0.0368096 0)
(-0.020178 0.0334977 0)
(-0.0246536 0.0295747 0)
(-0.0282746 0.0254057 0)
(-0.0311817 0.0211596 0)
(-0.033524 0.016924 0)
(-0.0354465 0.0127211 0)
(-0.0370785 0.00851579 0)
(-0.0385247 0.00421979 0)
(-0.0398642 -0.000311041 0)
(-0.0411219 -0.00528615 0)
(-0.042235 -0.010997 0)
(-0.0429868 -0.0178362 0)
(-0.0428551 -0.0262802 0)
(-0.0407974 -0.0367094 0)
(-0.0351265 -0.0486707 0)
(-0.0242444 -0.0582943 0)
(-0.00835675 -0.0489084 0)
(-0.0031823 0.033268 0)
(-0.0104597 0.0451918 0)
(-0.0181624 0.0432181 0)
(-0.0243423 0.0387444 0)
(-0.0291409 0.0337689 0)
(-0.0328532 0.0287167 0)
(-0.0357185 0.0237727 0)
(-0.0379653 0.0190232 0)
(-0.0398058 0.014477 0)
(-0.0414297 0.0100774 0)
(-0.0430026 0.00570954 0)
(-0.0446724 0.00119346 0)
(-0.0465577 -0.00372488 0)
(-0.0487274 -0.00944849 0)
(-0.0511255 -0.0165876 0)
(-0.0533375 -0.0260824 0)
(-0.0541019 -0.0391363 0)
(-0.0507055 -0.056274 0)
(-0.0394222 -0.0733935 0)
(-0.0147697 -0.0689172 0)
(-0.00436456 0.0406227 0)
(-0.0137688 0.054354 0)
(-0.0230208 0.0506919 0)
(-0.0298122 0.0444651 0)
(-0.0347206 0.0380927 0)
(-0.0382851 0.0319569 0)
(-0.0408675 0.0262146 0)
(-0.0427888 0.0209332 0)
(-0.0443378 0.0160958 0)
(-0.045768 0.0116164 0)
(-0.047307 0.00735924 0)
(-0.0491722 0.0031329 0)
(-0.0516101 -0.00132877 0)
(-0.0549091 -0.00645916 0)
(-0.0593753 -0.0130125 0)
(-0.0650716 -0.0224628 0)
(-0.0708569 -0.0372719 0)
(-0.0726944 -0.0603556 0)
(-0.0635769 -0.0897321 0)
(-0.0240064 -0.102432 0)
(-0.00639593 0.052111 0)
(-0.0189211 0.0652323 0)
(-0.0301817 0.0586181 0)
(-0.0371156 0.0502896 0)
(-0.041579 0.0422347 0)
(-0.0444832 0.0348162 0)
(-0.046292 0.028172 0)
(-0.0474276 0.0223532 0)
(-0.0482666 0.0173012 0)
(-0.049118 0.0128786 0)
(-0.0502471 0.00893103 0)
(-0.0519194 0.00528306 0)
(-0.0544724 0.00173705 0)
(-0.0584025 -0.00205342 0)
(-0.0645222 -0.00675722 0)
(-0.0736237 -0.0143565 0)
(-0.0849857 -0.0293139 0)
(-0.092931 -0.0611396 0)
(-0.0888683 -0.115058 0)
(-0.0247867 -0.171203 0)
(-0.00496117 0.0583142 0)
(-0.0267549 0.0849233 0)
(-0.0409606 0.0715547 0)
(-0.0459491 0.0567805 0)
(-0.0478531 0.0454659 0)
(-0.0479592 0.0362099 0)
(-0.0470714 0.0285266 0)
(-0.0457879 0.0222777 0)
(-0.0445667 0.0172376 0)
(-0.0436942 0.0131172 0)
(-0.0433726 0.00973643 0)
(-0.0437763 0.006932 0)
(-0.0452153 0.00467568 0)
(-0.0480959 0.00275834 0)
(-0.0534692 0.000839714 0)
(-0.0621541 -0.0040604 0)
(-0.0746305 -0.0208385 0)
(-0.0824727 -0.0710328 0)
(-0.0899465 -0.164237 0)
(0.00571832 -0.273233 0)
(-0.081895 0.116886 0)
(-0.0670103 0.0818692 0)
(-0.0502194 0.0562901 0)
(-0.0335009 0.0451123 0)
(-0.0181293 0.0360875 0)
(-0.00515562 0.028155 0)
(0.00551646 0.0217591 0)
(0.0142011 0.016873 0)
(0.0210991 0.0131379 0)
(0.0264289 0.0102176 0)
(0.030378 0.00798586 0)
(0.0332605 0.00631769 0)
(0.0347697 0.0055063 0)
(0.03564 0.00533316 0)
(0.0340432 0.00622151 0)
(0.0320168 0.00350313 0)
(0.0231515 -0.0126321 0)
(0.0303736 -0.0703141 0)
(-0.00653964 -0.17984 0)
(0.0842826 -0.274858 0)
(0.14677 0.116125 0)
(0.18312 0.0878227 0)
(0.246731 0.060756 0)
(0.299087 0.0433391 0)
(0.336579 0.0318208 0)
(0.363403 0.0234289 0)
(0.383352 0.0171402 0)
(0.398597 0.0125421 0)
(0.410277 0.00927042 0)
(0.419403 0.00691301 0)
(0.426146 0.00529396 0)
(0.432256 0.00401478 0)
(0.435507 0.00344599 0)
(0.44215 0.00288565 0)
(0.440051 0.00342489 0)
(0.450543 0.00427735 0)
(0.427435 0.00166416 0)
(0.428654 -0.00207268 0)
(0.326179 -0.0306584 0)
(0.283086 -0.0838851 0)
)
;

boundaryField
{
    movingWall
    {
        type            fixedValue;
        value           uniform (1 0 0);
    }
    fixedWalls
    {
        type            noSlip;
    }
    frontAndBack
    {
        type            empty;
    }
}


// ************************************************************************* //
