/*--------------------------------*- C++ -*----------------------------------*\
| =========                 |                                                 |
| \\      /  F ield         | OpenFOAM: The Open Source CFD Toolbox           |
|  \\    /   O peration     | Version:  2212                                  |
|   \\  /    A nd           | Website:  www.openfoam.com                      |
|    \\/     M anipulation  |                                                 |
\*---------------------------------------------------------------------------*/
FoamFile
{
    version     2.0;
    format      ascii;
    arch        "LSB;label=32;scalar=64";
    class       volVectorField;
    location    "1.525";
    object      U;
}
// * * * * * * * * * * * * * * * * * * * * * * * * * * * * * * * * * * * * * //

dimensions      [0 1 -1 0 0 0 0];

internalField   nonuniform List<vector> 
400
(
(0.000615522 -0.000709397 0)
(0.00130895 -0.00058152 0)
(0.000977867 -0.000304557 0)
(-0.000476118 2.10989e-05 0)
(-0.00350915 0.000554472 0)
(-0.00881414 0.00144243 0)
(-0.0170569 0.00280817 0)
(-0.0283704 0.00455164 0)
(-0.0417072 0.00607387 0)
(-0.0545275 0.0063676 0)
(-0.0635579 0.00476183 0)
(-0.0661399 0.00161509 0)
(-0.060865 -0.00199834 0)
(-0.0475051 -0.00548249 0)
(-0.0288396 -0.00752575 0)
(-0.008142 -0.00699885 0)
(0.00838439 -0.00403836 0)
(0.0149198 0.00115136 0)
(0.0106338 0.0040166 0)
(0.00308632 0.00312626 0)
(-7.06642e-06 -0.00124989 0)
(-0.00163046 0.00033026 0)
(-0.00616339 0.00236541 0)
(-0.0137451 0.00499136 0)
(-0.0255329 0.00876335 0)
(-0.0425767 0.0137584 0)
(-0.0646277 0.0192603 0)
(-0.0892044 0.0234046 0)
(-0.11199 0.0237699 0)
(-0.128753 0.0190138 0)
(-0.136796 0.00976838 0)
(-0.134999 -0.00205041 0)
(-0.123696 -0.0144634 0)
(-0.103026 -0.0255281 0)
(-0.0751617 -0.0320772 0)
(-0.042759 -0.0309248 0)
(-0.010959 -0.0206225 0)
(0.0104796 -0.00318974 0)
(0.0124157 0.0102164 0)
(0.00424192 0.0102189 0)
(-0.00125498 0.00087424 0)
(-0.00675673 0.00614639 0)
(-0.0172106 0.0118727 0)
(-0.0321578 0.0193278 0)
(-0.0529471 0.0290256 0)
(-0.0797304 0.0395446 0)
(-0.11 0.0477384 0)
(-0.139246 0.0499706 0)
(-0.163206 0.0441832 0)
(-0.179375 0.0309158 0)
(-0.186689 0.0122727 0)
(-0.185047 -0.00940991 0)
(-0.174801 -0.0319573 0)
(-0.155707 -0.0522941 0)
(-0.127867 -0.0661513 0)
(-0.0918481 -0.0679682 0)
(-0.0501955 -0.0525478 0)
(-0.010704 -0.0205914 0)
(0.00756653 0.0105893 0)
(0.0038409 0.0170159 0)
(-0.00280439 0.00660247 0)
(-0.0126489 0.0175902 0)
(-0.0291224 0.0280933 0)
(-0.0507939 0.0413106 0)
(-0.078579 0.0568459 0)
(-0.111219 0.0708854 0)
(-0.144642 0.0783201 0)
(-0.17417 0.0755826 0)
(-0.196923 0.0625053 0)
(-0.211998 0.0413698 0)
(-0.21938 0.0146708 0)
(-0.219636 -0.0156039 0)
(-0.213172 -0.0473212 0)
(-0.199322 -0.0774681 0)
(-0.176615 -0.101498 0)
(-0.143163 -0.112212 0)
(-0.0979496 -0.100067 0)
(-0.0441171 -0.0581084 0)
(-0.000487738 -0.00119143 0)
(0.00439496 0.0211821 0)
(-0.00419061 0.0157887 0)
(-0.0178496 0.0341893 0)
(-0.039202 0.049933 0)
(-0.0655962 0.0686855 0)
(-0.0972613 0.0885259 0)
(-0.131617 0.103332 0)
(-0.163771 0.107309 0)
(-0.189754 0.0983625 0)
(-0.208313 0.0784533 0)
(-0.219973 0.0508806 0)
(-0.225862 0.0180903 0)
(-0.227266 -0.0183087 0)
(-0.224737 -0.0567172 0)
(-0.217658 -0.0951196 0)
(-0.204102 -0.130163 0)
(-0.180145 -0.154717 0)
(-0.141272 -0.156089 0)
(-0.0845754 -0.117391 0)
(-0.0168435 -0.0337671 0)
(0.00609001 0.0209441 0)
(-0.00499368 0.0276152 0)
(-0.0210737 0.0544481 0)
(-0.0451487 0.0751757 0)
(-0.0733101 0.0982879 0)
(-0.105079 0.120276 0)
(-0.136943 0.133455 0)
(-0.163995 0.132503 0)
(-0.183503 0.117236 0)
(-0.195713 0.0913541 0)
(-0.202297 0.0588729 0)
(-0.205271 0.0224388 0)
(-0.206347 -0.0164262 0)
(-0.206287 -0.0570628 0)
(-0.205202 -0.0993147 0)
(-0.201742 -0.142252 0)
(-0.191171 -0.181175 0)
(-0.166339 -0.203389 0)
(-0.119859 -0.184865 0)
(-0.0493862 -0.097682 0)
(0.00454276 0.0111402 0)
(-0.00490296 0.0405774 0)
(-0.0214331 0.0761594 0)
(-0.0455698 0.101016 0)
(-0.0723936 0.126765 0)
(-0.101009 0.148807 0)
(-0.127602 0.158728 0)
(-0.14792 0.15221 0)
(-0.160621 0.130893 0)
(-0.167085 0.0998814 0)
(-0.169516 0.0637992 0)
(-0.169941 0.0255121 0)
(-0.169805 -0.0135101 0)
(-0.170016 -0.0531693 0)
(-0.171703 -0.0946027 0)
(-0.174886 -0.139312 0)
(-0.175992 -0.186934 0)
(-0.167075 -0.22896 0)
(-0.138328 -0.24038 0)
(-0.0839861 -0.176102 0)
(-0.00618371 -0.0131078 0)
(-0.00384276 0.052865 0)
(-0.0187508 0.0969802 0)
(-0.040483 0.124949 0)
(-0.0635704 0.151684 0)
(-0.0870763 0.172266 0)
(-0.107489 0.178187 0)
(-0.121597 0.166244 0)
(-0.129282 0.139614 0)
(-0.132542 0.104469 0)
(-0.133517 0.0657467 0)
(-0.133567 0.0261559 0)
(-0.133189 -0.0130552 0)
(-0.132861 -0.05161 0)
(-0.134162 -0.0903214 0)
(-0.13873 -0.131837 0)
(-0.145685 -0.180234 0)
(-0.1485 -0.234299 0)
(-0.136179 -0.273954 0)
(-0.101013 -0.244231 0)
(-0.0249854 -0.0621866 0)
(-0.00201243 0.0627214 0)
(-0.0135672 0.114733 0)
(-0.0310597 0.144948 0)
(-0.0489556 0.171413 0)
(-0.0665385 0.189807 0)
(-0.0810004 0.19197 0)
(-0.0902774 0.175646 0)
(-0.0950787 0.145103 0)
(-0.0974698 0.107151 0)
(-0.0990796 0.0667043 0)
(-0.100337 0.0260047 0)
(-0.100824 -0.0140235 0)
(-0.100515 -0.0526868 0)
(-0.100648 -0.0895153 0)
(-0.103747 -0.126524 0)
(-0.11169 -0.170411 0)
(-0.121036 -0.228108 0)
(-0.12025 -0.289631 0)
(-0.100141 -0.299157 0)
(-0.0336761 -0.137666 0)
(0.000183103 0.0687983 0)
(-0.00680747 0.127877 0)
(-0.0188823 0.159933 0)
(-0.0308675 0.185537 0)
(-0.0423042 0.20179 0)
(-0.0512984 0.201151 0)
(-0.0568442 0.182016 0)
(-0.0600177 0.149254 0)
(-0.0624708 0.10993 0)
(-0.0651206 0.0687241 0)
(-0.0677066 0.0273148 0)
(-0.0694572 -0.0137617 0)
(-0.0701274 -0.0535146 0)
(-0.0702505 -0.090033 0)
(-0.0720731 -0.123631 0)
(-0.0788514 -0.161 0)
(-0.0912269 -0.215623 0)
(-0.0981006 -0.290733 0)
(-0.0912644 -0.337382 0)
(-0.029891 -0.213404 0)
(0.00227475 0.0702287 0)
(0.000404677 0.135258 0)
(-0.00566457 0.169082 0)
(-0.011524 0.193568 0)
(-0.0168334 0.208065 0)
(-0.0205962 0.205897 0)
(-0.0227227 0.18574 0)
(-0.0243495 0.152536 0)
(-0.0264925 0.11318 0)
(-0.0294344 0.0720166 0)
(-0.0326491 0.0303631 0)
(-0.0355678 -0.0114265 0)
(-0.0379116 -0.0523094 0)
(-0.0396779 -0.0893379 0)
(-0.0423199 -0.121329 0)
(-0.0485644 -0.152965 0)
(-0.0626584 -0.20114 0)
(-0.0743656 -0.283029 0)
(-0.0795683 -0.361237 0)
(-0.022862 -0.27606 0)
(0.00390835 0.0672601 0)
(0.00711968 0.136707 0)
(0.00708521 0.172427 0)
(0.00726431 0.196015 0)
(0.00804481 0.20936 0)
(0.00959563 0.206807 0)
(0.011277 0.187053 0)
(0.0119267 0.15473 0)
(0.011057 0.116267 0)
(0.00883551 0.0757391 0)
(0.00585926 0.0344273 0)
(0.00209471 -0.00725953 0)
(-0.00206648 -0.0480146 0)
(-0.00655434 -0.085159 0)
(-0.0122691 -0.116387 0)
(-0.0200127 -0.14392 0)
(-0.0365199 -0.184797 0)
(-0.0515564 -0.268535 0)
(-0.0683794 -0.373823 0)
(-0.0152268 -0.32869 0)
(0.00465773 0.0607946 0)
(0.0122082 0.13236 0)
(0.0177957 0.16961 0)
(0.0236349 0.192148 0)
(0.030263 0.204495 0)
(0.0372656 0.202495 0)
(0.0435299 0.184566 0)
(0.0476867 0.154503 0)
(0.0493324 0.117971 0)
(0.0487629 0.0788564 0)
(0.046575 0.0386665 0)
(0.0424496 -0.0021443 0)
(0.0366654 -0.041575 0)
(0.0289231 -0.0775956 0)
(0.0187771 -0.107597 0)
(0.00733761 -0.132076 0)
(-0.0128603 -0.166605 0)
(-0.0294604 -0.248849 0)
(-0.057968 -0.376722 0)
(-0.00738566 -0.371358 0)
(0.00431904 0.0523054 0)
(0.0147654 0.123163 0)
(0.0252515 0.161724 0)
(0.036242 0.183368 0)
(0.048422 0.194583 0)
(0.0609813 0.193398 0)
(0.0724342 0.178107 0)
(0.0811306 0.151329 0)
(0.0863979 0.117716 0)
(0.0883225 0.0809327 0)
(0.0873487 0.0429006 0)
(0.0832255 0.00447752 0)
(0.0759432 -0.0323638 0)
(0.0650781 -0.0659264 0)
(0.0503573 -0.0939605 0)
(0.0337551 -0.115968 0)
(0.00837918 -0.14512 0)
(-0.00771203 -0.224893 0)
(-0.048465 -0.373811 0)
(0.00103378 -0.407974 0)
(0.00289948 0.0437916 0)
(0.0139011 0.110848 0)
(0.0275229 0.148453 0)
(0.0426272 0.1681 0)
(0.0598579 0.177538 0)
(0.0780252 0.176898 0)
(0.095162 0.164669 0)
(0.109236 0.142234 0)
(0.119097 0.113023 0)
(0.124404 0.0802224 0)
(0.125274 0.0460195 0)
(0.121618 0.0116941 0)
(0.112932 -0.0210955 0)
(0.0993858 -0.0507785 0)
(0.0801639 -0.0756183 0)
(0.0585071 -0.0957097 0)
(0.0278467 -0.120978 0)
(0.0139262 -0.198561 0)
(-0.0394666 -0.368411 0)
(0.0110311 -0.440397 0)
(0.00057156 0.0369562 0)
(0.00981849 0.0981979 0)
(0.025108 0.133961 0)
(0.0433202 0.151121 0)
(0.0646599 0.157893 0)
(0.087671 0.156598 0)
(0.110074 0.146622 0)
(0.129472 0.128493 0)
(0.144174 0.104419 0)
(0.153393 0.0768825 0)
(0.156642 0.0479456 0)
(0.154159 0.0191315 0)
(0.14477 -0.00830536 0)
(0.12945 -0.0327489 0)
(0.106581 -0.0532244 0)
(0.0810758 -0.0710714 0)
(0.0462356 -0.0946403 0)
(0.0345078 -0.172277 0)
(-0.0298043 -0.363063 0)
(0.0249342 -0.467905 0)
(-0.00295168 0.0373834 0)
(-0.000632917 0.087738 0)
(0.0126154 0.113389 0)
(0.0338489 0.125609 0)
(0.0595697 0.129744 0)
(0.0874722 0.127961 0)
(0.114944 0.120243 0)
(0.139508 0.10674 0)
(0.159038 0.0887735 0)
(0.172439 0.0680299 0)
(0.178588 0.0462657 0)
(0.177879 0.0247443 0)
(0.168785 0.00461254 0)
(0.153604 -0.0133172 0)
(0.128992 -0.0284614 0)
(0.102736 -0.0441273 0)
(0.0660632 -0.0685987 0)
(0.0549004 -0.148577 0)
(-0.0133819 -0.353043 0)
(0.0476711 -0.48082 0)
(-0.00749135 0.0283783 0)
(-0.0080492 0.0868233 0)
(0.00145728 0.105395 0)
(0.0230428 0.107785 0)
(0.0512111 0.105567 0)
(0.0820214 0.101213 0)
(0.112699 0.0943723 0)
(0.140509 0.0843896 0)
(0.163406 0.0720469 0)
(0.18034 0.0579661 0)
(0.18943 0.0436985 0)
(0.192347 0.0297622 0)
(0.185799 0.0175208 0)
(0.175352 0.00641228 0)
(0.153756 -0.00324596 0)
(0.13496 -0.0172149 0)
(0.0995753 -0.0448379 0)
(0.0881636 -0.128573 0)
(0.0276737 -0.321409 0)
(0.0887547 -0.452282 0)
(-0.101542 0.0895671 0)
(-0.0753851 0.072823 0)
(-0.0545924 0.0646351 0)
(-0.0153872 0.0624548 0)
(0.0244568 0.0603302 0)
(0.0649957 0.0574538 0)
(0.103316 0.0537313 0)
(0.139918 0.0485092 0)
(0.170257 0.0426107 0)
(0.19826 0.0358141 0)
(0.216237 0.0293803 0)
(0.23368 0.0230401 0)
(0.23768 0.0180441 0)
(0.245372 0.0133914 0)
(0.234481 0.00894689 0)
(0.23396 -0.000501787 0)
(0.201726 -0.0250521 0)
(0.200223 -0.0889673 0)
(0.143937 -0.228668 0)
(0.169377 -0.341037 0)
(0.132845 0.106416 0)
(0.164613 0.0812426 0)
(0.221507 0.0593927 0)
(0.278197 0.0462055 0)
(0.325399 0.0385304 0)
(0.37014 0.0331251 0)
(0.407204 0.0293819 0)
(0.446087 0.025866 0)
(0.475044 0.0233195 0)
(0.508084 0.0203189 0)
(0.527061 0.0184052 0)
(0.553751 0.0156333 0)
(0.56154 0.0144788 0)
(0.582637 0.0118969 0)
(0.577306 0.0113737 0)
(0.590398 0.00715875 0)
(0.55932 0.00244744 0)
(0.545105 -0.0163733 0)
(0.438314 -0.0493017 0)
(0.338873 -0.100898 0)
)
;

boundaryField
{
    movingWall
    {
        type            fixedValue;
        value           uniform (1 0 0);
    }
    fixedWalls
    {
        type            noSlip;
    }
    frontAndBack
    {
        type            empty;
    }
}


// ************************************************************************* //
