/*--------------------------------*- C++ -*----------------------------------*\
| =========                 |                                                 |
| \\      /  F ield         | OpenFOAM: The Open Source CFD Toolbox           |
|  \\    /   O peration     | Version:  2212                                  |
|   \\  /    A nd           | Website:  www.openfoam.com                      |
|    \\/     M anipulation  |                                                 |
\*---------------------------------------------------------------------------*/
FoamFile
{
    version     2.0;
    format      ascii;
    arch        "LSB;label=32;scalar=64";
    class       surfaceScalarField;
    location    "1.08";
    object      phi;
}
// * * * * * * * * * * * * * * * * * * * * * * * * * * * * * * * * * * * * * //

dimensions      [0 3 -1 0 0 0 0];

oriented        oriented;

internalField   nonuniform List<scalar> 
760
(
-1.30799e-08
1.30797e-08
-9.01424e-08
7.70624e-08
-1.99549e-07
1.09407e-07
-3.30313e-07
1.30764e-07
-4.92198e-07
1.61886e-07
-7.00591e-07
2.08393e-07
-9.66065e-07
2.65475e-07
-1.28358e-06
3.17514e-07
-1.62056e-06
3.36985e-07
-1.91255e-06
2.9198e-07
-2.07654e-06
1.63994e-07
-2.03617e-06
-4.03662e-08
-1.73234e-06
-3.03828e-07
-1.20669e-06
-5.25652e-07
-5.71932e-07
-6.3476e-07
-9.6972e-11
-5.71835e-07
3.54342e-07
-3.54439e-07
3.82957e-07
-2.86146e-08
1.84538e-07
1.98419e-07
1.84538e-07
-1.24671e-07
1.3775e-07
-3.87779e-07
3.40171e-07
-7.18608e-07
4.40237e-07
-1.10232e-06
5.14476e-07
-1.55047e-06
6.10039e-07
-2.07488e-06
7.32803e-07
-2.66917e-06
8.59758e-07
-3.29492e-06
9.43267e-07
-3.87602e-06
9.18086e-07
-4.30877e-06
7.24728e-07
-4.49133e-06
3.46562e-07
-4.34516e-06
-1.86541e-07
-3.82092e-06
-8.28069e-07
-2.95183e-06
-1.39474e-06
-1.85809e-06
-1.7285e-06
-7.52804e-07
-1.67713e-06
6.63017e-08
-1.17354e-06
3.95471e-07
-3.57784e-07
2.50432e-07
3.43458e-07
4.3497e-07
-2.36681e-07
3.74432e-07
-6.67841e-07
7.7133e-07
-1.18658e-06
9.58976e-07
-1.77324e-06
1.10113e-06
-2.43582e-06
1.27262e-06
-3.17782e-06
1.47481e-06
-3.98372e-06
1.66566e-06
-4.81187e-06
1.77142e-06
-5.58931e-06
1.69552e-06
-6.20968e-06
1.3451e-06
-6.54872e-06
6.85601e-07
-6.51425e-06
-2.21014e-07
-6.03267e-06
-1.30965e-06
-5.10479e-06
-2.32261e-06
-3.79033e-06
-3.04296e-06
-2.25159e-06
-3.21587e-06
-8.1178e-07
-2.61335e-06
7.84108e-08
-1.24798e-06
2.11992e-07
2.09877e-07
6.46962e-07
-3.22841e-07
6.97273e-07
-8.82285e-07
1.33077e-06
-1.54034e-06
1.61703e-06
-2.27339e-06
1.83419e-06
-3.09093e-06
2.09015e-06
-4.00341e-06
2.38729e-06
-5.01211e-06
2.67436e-06
-6.09382e-06
2.85312e-06
-7.17118e-06
2.77289e-06
-8.09737e-06
2.27128e-06
-8.69345e-06
1.28168e-06
-8.84534e-06
-6.91297e-08
-8.52534e-06
-1.62964e-06
-7.69607e-06
-3.15188e-06
-6.33429e-06
-4.40474e-06
-4.47932e-06
-5.07084e-06
-2.3636e-06
-4.72907e-06
-5.68169e-07
-3.04341e-06
1.49742e-07
-5.08035e-07
7.96704e-07
-3.75007e-07
1.07228e-06
-1.01484e-06
1.9706e-06
-1.76276e-06
2.36496e-06
-2.59567e-06
2.66709e-06
-3.53349e-06
3.02797e-06
-4.60603e-06
3.45983e-06
-5.83256e-06
3.90088e-06
-7.17935e-06
4.19991e-06
-8.51253e-06
4.10607e-06
-9.62879e-06
3.38755e-06
-1.03716e-05
2.0245e-06
-1.06107e-05
1.69958e-07
-1.04756e-05
-1.76475e-06
-9.88777e-06
-3.7397e-06
-8.76004e-06
-5.53248e-06
-6.97433e-06
-6.85654e-06
-4.5004e-06
-7.203e-06
-1.76014e-06
-5.78367e-06
-3.9414e-08
-2.22876e-06
7.5729e-07
-3.89305e-07
1.46158e-06
-1.05954e-06
2.64083e-06
-1.84863e-06
3.15405e-06
-2.73612e-06
3.55458e-06
-3.7529e-06
4.04475e-06
-4.93909e-06
4.64603e-06
-6.30012e-06
5.26191e-06
-7.74683e-06
5.64663e-06
-9.08367e-06
5.44291e-06
-1.01134e-05
4.41727e-06
-1.07586e-05
2.66973e-06
-1.1047e-05
4.58355e-07
-1.1032e-05
-1.77981e-06
-1.07443e-05
-4.02732e-06
-1.00769e-05
-6.19995e-06
-8.80787e-06
-8.12555e-06
-6.64849e-06
-9.36237e-06
-3.5417e-06
-8.89046e-06
-5.67843e-07
-5.20262e-06
1.89447e-07
-3.6453e-07
1.82611e-06
-1.01367e-06
3.28998e-06
-1.79066e-06
3.93104e-06
-2.6723e-06
4.43622e-06
-3.68663e-06
5.05908e-06
-4.85922e-06
5.81862e-06
-6.15628e-06
6.55896e-06
-7.44334e-06
6.93369e-06
-8.52963e-06
6.5292e-06
-9.28896e-06
5.1766e-06
-9.72509e-06
3.10586e-06
-9.95454e-06
6.87804e-07
-1.0004e-05
-1.73039e-06
-9.94366e-06
-4.08762e-06
-9.75281e-06
-6.3908e-06
-9.22493e-06
-8.65343e-06
-7.91829e-06
-1.0669e-05
-5.32485e-06
-1.14839e-05
-1.58855e-06
-8.93892e-06
-1.3991e-06
-3.02454e-07
2.12857e-06
-8.78444e-07
3.86597e-06
-1.58392e-06
4.63651e-06
-2.38309e-06
5.23539e-06
-3.28526e-06
5.96125e-06
-4.29071e-06
6.82407e-06
-5.3417e-06
7.60995e-06
-6.31121e-06
7.9032e-06
-7.06875e-06
7.28674e-06
-7.5615e-06
5.66936e-06
-7.825e-06
3.36936e-06
-7.95708e-06
8.19886e-07
-7.99792e-06
-1.68956e-06
-8.02509e-06
-4.06045e-06
-8.11229e-06
-6.30359e-06
-8.18253e-06
-8.5832e-06
-7.80376e-06
-1.10478e-05
-6.19058e-06
-1.30971e-05
-2.77548e-06
-1.2354e-05
-4.17459e-06
-2.10163e-07
2.33873e-06
-6.65981e-07
4.32178e-06
-1.24349e-06
5.21403e-06
-1.88776e-06
5.87966e-06
-2.58258e-06
6.65607e-06
-3.31097e-06
7.55247e-06
-4.02392e-06
8.3229e-06
-4.64537e-06
8.52466e-06
-5.12128e-06
7.76265e-06
-5.44934e-06
5.99742e-06
-5.65724e-06
3.57726e-06
-5.78115e-06
9.43796e-07
-5.8445e-06
-1.62622e-06
-5.90124e-06
-4.00371e-06
-6.06095e-06
-6.14388e-06
-6.39382e-06
-8.25032e-06
-6.62988e-06
-1.08117e-05
-5.95976e-06
-1.37672e-05
-3.54666e-06
-1.47671e-05
-7.72124e-06
-1.02021e-07
2.44075e-06
-4.02919e-07
4.62268e-06
-8.11295e-07
5.6224e-06
-1.25166e-06
6.32002e-06
-1.68291e-06
7.08731e-06
-2.08177e-06
7.95133e-06
-2.43036e-06
8.67148e-06
-2.72023e-06
8.81452e-06
-2.96581e-06
8.00823e-06
-3.19178e-06
6.2234e-06
-3.4063e-06
3.79179e-06
-3.59712e-06
1.13461e-06
-3.74804e-06
-1.47529e-06
-3.87715e-06
-3.8746e-06
-4.07892e-06
-5.94211e-06
-4.50608e-06
-7.82316e-06
-5.09628e-06
-1.02215e-05
-5.12033e-06
-1.37432e-05
-3.46402e-06
-1.64234e-05
-1.11853e-05
1.01668e-08
2.43058e-06
-1.2599e-07
4.75884e-06
-3.47035e-07
5.84345e-06
-5.64463e-07
6.53745e-06
-7.16746e-07
7.2396e-06
-7.80006e-07
8.01459e-06
-7.71256e-07
8.66273e-06
-7.49841e-07
8.79311e-06
-7.74476e-07
8.03286e-06
-8.7451e-07
6.32343e-06
-1.05958e-06
3.97685e-06
-1.30633e-06
1.38136e-06
-1.57378e-06
-1.20784e-06
-1.84659e-06
-3.60179e-06
-2.1698e-06
-5.6189e-06
-2.69689e-06
-7.29607e-06
-3.52227e-06
-9.39615e-06
-4.05247e-06
-1.3213e-05
-3.00493e-06
-1.7471e-05
-1.41902e-05
9.68826e-08
2.3337e-06
1.18419e-07
4.7373e-06
8.45626e-08
5.8773e-06
8.47877e-08
6.53723e-06
1.88246e-07
7.13614e-06
4.26059e-07
7.77678e-06
7.73672e-07
8.31512e-06
1.13692e-06
8.42985e-06
1.39339e-06
7.7764e-06
1.46182e-06
6.255e-06
1.33872e-06
4.09996e-06
1.06202e-06
1.65806e-06
6.72698e-07
-8.18514e-07
2.26577e-07
-3.15567e-06
-3.33025e-07
-5.05929e-06
-1.06858e-06
-6.56052e-06
-2.09529e-06
-8.36944e-06
-3.00368e-06
-1.23046e-05
-2.5038e-06
-1.79709e-05
-1.6694e-05
1.50667e-07
2.18303e-06
2.92208e-07
4.59576e-06
4.11009e-07
5.7585e-06
5.86851e-07
6.36139e-06
8.98935e-07
6.82405e-06
1.38696e-06
7.28876e-06
2.02349e-06
7.67859e-06
2.69786e-06
7.75549e-06
3.2426e-06
7.23166e-06
3.53014e-06
5.96745e-06
3.53014e-06
4.09996e-06
3.27456e-06
1.91364e-06
2.76763e-06
-3.11585e-07
2.10628e-06
-2.49432e-06
1.31131e-06
-4.26432e-06
3.46929e-07
-5.59614e-06
-8.69342e-07
-7.15317e-06
-2.06387e-06
-1.111e-05
-2.01655e-06
-1.80182e-05
-1.87105e-05
1.59405e-07
2.02363e-06
3.71597e-07
4.38357e-06
6.09138e-07
5.52096e-06
9.29525e-07
6.041e-06
1.39801e-06
6.35557e-06
2.0526e-06
6.63416e-06
2.87449e-06
6.8567e-06
3.76247e-06
6.86751e-06
4.54353e-06
6.45059e-06
5.05315e-06
5.45783e-06
5.21209e-06
3.94103e-06
5.02277e-06
2.10295e-06
4.51726e-06
1.93926e-07
3.70904e-06
-1.6861e-06
2.7e-06
-3.25528e-06
1.54012e-06
-4.43625e-06
1.4583e-07
-5.75888e-06
-1.25899e-06
-9.70521e-06
-1.58199e-06
-1.76952e-05
-2.02925e-05
1.12827e-07
1.9108e-06
3.26899e-07
4.1695e-06
6.31314e-07
5.21655e-06
1.06131e-06
5.611e-06
1.64621e-06
5.77067e-06
2.40536e-06
5.87501e-06
3.32319e-06
5.93887e-06
4.32001e-06
5.87069e-06
5.2456e-06
5.525e-06
5.92672e-06
4.77671e-06
6.24328e-06
3.62447e-06
6.15799e-06
2.18823e-06
5.69525e-06
6.56667e-07
4.84433e-06
-8.35177e-07
3.71902e-06
-2.12996e-06
2.42129e-06
-3.13853e-06
9.49625e-07
-4.28721e-06
-5.4167e-07
-8.21392e-06
-1.1658e-06
-1.70711e-05
-2.14583e-05
1.05201e-08
1.90028e-06
1.71628e-07
4.00839e-06
5.05179e-07
4.883e-06
1.0144e-06
5.10178e-06
1.67882e-06
5.10626e-06
2.49661e-06
5.05722e-06
3.44705e-06
4.98843e-06
4.46832e-06
4.84942e-06
5.44345e-06
4.54988e-06
6.21911e-06
4.00105e-06
6.65933e-06
3.18425e-06
6.69065e-06
2.15692e-06
6.29884e-06
1.04848e-06
5.49989e-06
-3.62268e-08
4.36751e-06
-9.97578e-07
3.04602e-06
-1.81705e-06
1.6217e-06
-2.86289e-06
8.13526e-08
-6.67357e-06
-6.304e-07
-1.63593e-05
-2.20887e-05
-2.36715e-07
2.137e-06
-2.96735e-07
4.06841e-06
7.49059e-08
4.51136e-06
7.03311e-07
4.47337e-06
1.49276e-06
4.31681e-06
2.39221e-06
4.15776e-06
3.37283e-06
4.00781e-06
4.39089e-06
3.83135e-06
5.35989e-06
3.58088e-06
6.16328e-06
3.19766e-06
6.67271e-06
2.67483e-06
6.80582e-06
2.02381e-06
6.51742e-06
1.33687e-06
5.82647e-06
6.54725e-07
4.79804e-06
3.08507e-08
3.59514e-06
-6.1415e-07
2.40562e-06
-1.67337e-06
1.25136e-06
-5.51931e-06
2.11026e-07
-1.5319e-05
-2.18777e-05
-3.61715e-07
2.49871e-06
-5.18249e-07
4.22494e-06
-2.34142e-07
4.22725e-06
3.80456e-07
3.85878e-06
1.18878e-06
3.50848e-06
2.1029e-06
3.24364e-06
3.07693e-06
3.03379e-06
4.07587e-06
2.83241e-06
5.02541e-06
2.63134e-06
5.84724e-06
2.37583e-06
6.43543e-06
2.08663e-06
6.72902e-06
1.73022e-06
6.68091e-06
1.38499e-06
6.31147e-06
1.02416e-06
5.64407e-06
6.98255e-07
4.89506e-06
1.34859e-07
4.20413e-06
-9.82438e-07
3.29385e-06
-4.60903e-06
1.57653e-06
-1.36016e-05
-2.03012e-05
-3.93991e-06
6.43863e-06
-3.62605e-06
3.91108e-06
-2.13008e-06
2.73128e-06
-5.71805e-07
2.3005e-06
9.04772e-07
2.03191e-06
2.33901e-06
1.80941e-06
3.73692e-06
1.63587e-06
5.09352e-06
1.47581e-06
6.37054e-06
1.35432e-06
7.53544e-06
1.21093e-06
8.52813e-06
1.09394e-06
9.31795e-06
9.40398e-07
9.8634e-06
8.3954e-07
1.01895e-05
6.98009e-07
1.03165e-05
5.71314e-07
1.02151e-05
2.36226e-07
9.96389e-06
-7.31214e-07
9.12786e-06
-3.77299e-06
5.24158e-06
-9.71537e-06
-1.50596e-05
6.43863e-06
1.03497e-05
1.3081e-05
1.53815e-05
1.74134e-05
1.92228e-05
2.08587e-05
2.23345e-05
2.36888e-05
2.48997e-05
2.59937e-05
2.69341e-05
2.77736e-05
2.84716e-05
2.90429e-05
2.92792e-05
2.85479e-05
2.4775e-05
1.50596e-05
)
;

boundaryField
{
    movingWall
    {
        type            calculated;
        value           uniform 0;
    }
    fixedWalls
    {
        type            calculated;
        value           uniform 0;
    }
    frontAndBack
    {
        type            empty;
        value           nonuniform List<scalar> 0();
    }
}


// ************************************************************************* //
