/*--------------------------------*- C++ -*----------------------------------*\
| =========                 |                                                 |
| \\      /  F ield         | OpenFOAM: The Open Source CFD Toolbox           |
|  \\    /   O peration     | Version:  2212                                  |
|   \\  /    A nd           | Website:  www.openfoam.com                      |
|    \\/     M anipulation  |                                                 |
\*---------------------------------------------------------------------------*/
FoamFile
{
    version     2.0;
    format      ascii;
    arch        "LSB;label=32;scalar=64";
    class       volScalarField;
    location    "4.415";
    object      p;
}
// * * * * * * * * * * * * * * * * * * * * * * * * * * * * * * * * * * * * * //

dimensions      [0 2 -2 0 0 0 0];

internalField   nonuniform List<scalar> 
400
(
8.92091e-07
-0.00582848
-0.0129669
-0.0184194
-0.0204371
-0.0182435
-0.011779
-0.00148877
0.0118323
0.0271442
0.0432396
0.0588184
0.0725742
0.0833041
0.0900485
0.0922626
0.0900214
0.0842393
0.076876
0.0710624
0.00577762
-0.00022195
-0.00580809
-0.00954699
-0.0106036
-0.00843753
-0.00297483
0.00546921
0.016298
0.0287068
0.0417449
0.0543812
0.0655818
0.0744054
0.0801159
0.0823114
0.0810728
0.0770503
0.0712694
0.0653131
0.0133314
0.00502978
-0.000999462
-0.00442752
-0.00527756
-0.00326873
0.00159746
0.00902267
0.0184972
0.0293444
0.0407606
0.0518648
0.0617638
0.0696317
0.0748025
0.0768736
0.0758371
0.0720813
0.0658008
0.0575306
0.0201356
0.00869198
0.0012217
-0.0026729
-0.00372671
-0.00189009
0.00272637
0.00977962
0.0187754
0.0290901
0.0399871
0.0506492
0.0602281
0.0679112
0.0729985
0.0749968
0.0737612
0.0694514
0.0615982
0.0500976
0.0244981
0.00976908
0.000585604
-0.00399123
-0.00530674
-0.00351204
0.00116986
0.00832959
0.017457
0.0279441
0.0390801
0.0500651
0.0600441
0.0681602
0.0736215
0.0757929
0.0743642
0.069285
0.0595207
0.0445321
0.0251739
0.00714593
-0.00380622
-0.00906149
-0.0105166
-0.00850456
-0.00336158
0.0044245
0.0143084
0.025674
0.0378089
0.0498984
0.0610433
0.0702983
0.0767298
0.079512
0.078134
0.0723286
0.0605343
0.041885
0.0210894
-0.00026655
-0.0129388
-0.0187136
-0.0200342
-0.0174184
-0.011323
-0.00232449
0.0089855
0.0219712
0.0359047
0.0499395
0.0631073
0.0743405
0.082517
0.0865646
0.0857158
0.0794421
0.0656154
0.0430667
0.0111387
-0.0136225
-0.0278794
-0.0338586
-0.0346079
-0.0308619
-0.0232173
-0.0123498
0.00110005
0.016479
0.0330476
0.0499287
0.0660785
0.0802851
0.0911959
0.0974252
0.0978654
0.0916311
0.0758913
0.0491115
-0.00597141
-0.0342708
-0.0498745
-0.0555531
-0.0550946
-0.049519
-0.0395979
-0.0261178
-0.00976174
0.00881822
0.0288961
0.0495886
0.0697926
0.0881497
0.103043
0.112696
0.115546
0.110187
0.0928294
0.0614065
-0.0318615
-0.0638805
-0.0804214
-0.0850117
-0.0824246
-0.0740828
-0.0609854
-0.0440411
-0.023956
-0.00134152
0.0231409
0.0486562
0.0740908
0.0979675
0.118391
0.133121
0.139984
0.136813
0.118436
0.081929
-0.0686718
-0.104608
-0.121349
-0.123595
-0.11752
-0.105131
-0.0877228
-0.06633
-0.0416415
-0.0141601
0.015601
0.0469486
0.0788511
0.109789
0.137619
0.159581
0.172722
0.173774
0.155516
0.113566
-0.119407
-0.159361
-0.174919
-0.172761
-0.161152
-0.142933
-0.119763
-0.0927815
-0.0625818
-0.029452
0.00636872
0.044469
0.0840506
0.123699
0.161132
0.193081
0.215664
0.224073
0.208046
0.160628
-0.188633
-0.232246
-0.243943
-0.233952
-0.213698
-0.187159
-0.156377
-0.122505
-0.0859022
-0.0464764
-0.00401866
0.0415346
0.0898379
0.139825
0.189315
0.234685
0.27107
0.29166
0.281739
0.229772
-0.283979
-0.329309
-0.331836
-0.308284
-0.274712
-0.236444
-0.195768
-0.153614
-0.109844
-0.0637491
-0.0144418
0.0388596
0.0965504
0.158273
0.22237
0.285284
0.341393
0.381571
0.38491
0.33183
-0.419322
-0.459675
-0.442354
-0.395796
-0.342132
-0.287743
-0.234619
-0.182933
-0.131613
-0.0789884
-0.0232174
0.0374719
0.10455
0.178834
0.259858
0.344967
0.428613
0.499697
0.529672
0.485388
-0.620535
-0.636747
-0.57868
-0.494196
-0.411243
-0.335661
-0.267783
-0.20598
-0.147539
-0.0893858
-0.0284289
0.0383454
0.113804
0.200469
0.299972
0.412022
0.533027
0.651772
0.732769
0.722393
-0.935926
-0.878518
-0.741744
-0.597951
-0.474395
-0.372661
-0.288871
-0.217765
-0.153956
-0.0924663
-0.0287198
0.0416932
0.123261
0.220716
0.338923
0.482152
0.651994
0.841339
1.01527
1.0975
-1.47643
-1.20663
-0.920505
-0.69139
-0.517307
-0.387546
-0.290063
-0.213339
-0.148126
-0.0872177
-0.0245799
0.0454552
0.128935
0.233069
0.367101
0.542676
0.771291
1.05932
1.40328
1.73014
-2.53965
-1.63055
-1.04444
-0.710961
-0.495752
-0.352095
-0.254533
-0.183585
-0.126171
-0.0735973
-0.0192713
0.0427846
0.11921
0.21878
0.35481
0.547981
0.826391
1.23658
1.91167
2.92419
-4.36667
-2.04464
-0.973544
-0.563182
-0.357848
-0.240148
-0.170121
-0.123785
-0.0874834
-0.0535125
-0.0166568
0.0276583
0.0846051
0.161727
0.272409
0.442097
0.718216
1.22571
2.41103
4.84853
)
;

boundaryField
{
    movingWall
    {
        type            zeroGradient;
    }
    fixedWalls
    {
        type            zeroGradient;
    }
    frontAndBack
    {
        type            empty;
    }
}


// ************************************************************************* //
