/*--------------------------------*- C++ -*----------------------------------*\
| =========                 |                                                 |
| \\      /  F ield         | OpenFOAM: The Open Source CFD Toolbox           |
|  \\    /   O peration     | Version:  2212                                  |
|   \\  /    A nd           | Website:  www.openfoam.com                      |
|    \\/     M anipulation  |                                                 |
\*---------------------------------------------------------------------------*/
FoamFile
{
    version     2.0;
    format      ascii;
    arch        "LSB;label=32;scalar=64";
    class       volVectorField;
    location    "3.635";
    object      U;
}
// * * * * * * * * * * * * * * * * * * * * * * * * * * * * * * * * * * * * * //

dimensions      [0 1 -1 0 0 0 0];

internalField   nonuniform List<vector> 
400
(
(0.00163692 -0.00164628 0)
(0.00469605 -0.00184518 0)
(0.00637195 -0.00117449 0)
(0.00543717 -0.00055721 0)
(0.00136543 0.000200089 0)
(-0.00692922 0.00173387 0)
(-0.0205004 0.00470756 0)
(-0.039136 0.00856613 0)
(-0.0601074 0.0111019 0)
(-0.0782688 0.0103941 0)
(-0.0889584 0.0067534 0)
(-0.0897706 0.0017243 0)
(-0.0798198 -0.00350212 0)
(-0.0599224 -0.00813516 0)
(-0.0337786 -0.010718 0)
(-0.00579984 -0.00972007 0)
(0.0161138 -0.00482332 0)
(0.0239624 0.00266758 0)
(0.0159412 0.00635704 0)
(0.0042746 0.00465493 0)
(0.00164087 -0.00490091 0)
(0.00294671 -0.00385944 0)
(-0.000687958 0.000653756 0)
(-0.0114959 0.00639834 0)
(-0.031297 0.0138689 0)
(-0.0605429 0.0233992 0)
(-0.0957207 0.0325306 0)
(-0.12995 0.0365798 0)
(-0.157266 0.033175 0)
(-0.174373 0.0232893 0)
(-0.17984 0.00922142 0)
(-0.173682 -0.00669267 0)
(-0.156474 -0.0227302 0)
(-0.128921 -0.036407 0)
(-0.0932652 -0.0440947 0)
(-0.0522262 -0.0415275 0)
(-0.0117219 -0.0263136 0)
(0.0164206 -0.00154012 0)
(0.017586 0.0158985 0)
(0.00548974 0.0146215 0)
(-0.000308936 -0.00547869 0)
(-0.00549838 0.00104754 0)
(-0.0196089 0.0142346 0)
(-0.044147 0.0308181 0)
(-0.0794128 0.0486978 0)
(-0.120679 0.0633805 0)
(-0.160373 0.0696348 0)
(-0.193012 0.0653272 0)
(-0.216457 0.0517921 0)
(-0.230102 0.0314747 0)
(-0.233946 0.00669512 0)
(-0.228627 -0.0205267 0)
(-0.214453 -0.0480436 0)
(-0.190923 -0.0722714 0)
(-0.15776 -0.0881036 0)
(-0.114932 -0.0885316 0)
(-0.064238 -0.066754 0)
(-0.0139609 -0.0229609 0)
(0.00932284 0.0174238 0)
(0.00415023 0.0232698 0)
(-0.00345959 0.000781157 0)
(-0.0173671 0.0173273 0)
(-0.0430332 0.0410268 0)
(-0.0786422 0.0672 0)
(-0.12128 0.0898435 0)
(-0.16366 0.102487 0)
(-0.199396 0.101736 0)
(-0.226498 0.0888254 0)
(-0.245209 0.0668645 0)
(-0.256129 0.0385393 0)
(-0.260088 0.00571433 0)
(-0.257886 -0.0302953 0)
(-0.249457 -0.0672911 0)
(-0.233754 -0.102356 0)
(-0.208784 -0.13006 0)
(-0.171853 -0.141643 0)
(-0.120434 -0.12497 0)
(-0.0565021 -0.0707607 0)
(-0.00109217 0.00305331 0)
(0.00473578 0.0278652 0)
(-0.00657129 0.0149419 0)
(-0.0283118 0.0438065 0)
(-0.0623512 0.0760726 0)
(-0.102896 0.107355 0)
(-0.14515 0.129431 0)
(-0.182074 0.136521 0)
(-0.21017 0.128123 0)
(-0.229776 0.107748 0)
(-0.242175 0.0792384 0)
(-0.249087 0.0453736 0)
(-0.25221 0.00768403 0)
(-0.252485 -0.0330493 0)
(-0.249698 -0.0757093 0)
(-0.243262 -0.119 0)
(-0.230374 -0.158995 0)
(-0.206407 -0.187273 0)
(-0.165353 -0.188552 0)
(-0.102577 -0.142102 0)
(-0.0221125 -0.0390699 0)
(0.00728763 0.0266835 0)
(-0.00835823 0.0346835 0)
(-0.0345708 0.0758248 0)
(-0.0718812 0.113375 0)
(-0.111459 0.14564 0)
(-0.148276 0.163886 0)
(-0.176872 0.164034 0)
(-0.196201 0.148175 0)
(-0.207767 0.121328 0)
(-0.213552 0.0878435 0)
(-0.216043 0.05071 0)
(-0.217252 0.0113884 0)
(-0.218214 -0.0297388 0)
(-0.21914 -0.0731833 0)
(-0.220091 -0.119376 0)
(-0.218852 -0.167131 0)
(-0.210296 -0.210966 0)
(-0.18634 -0.23668 0)
(-0.138441 -0.217056 0)
(-0.0622233 -0.118287 0)
(0.00569269 0.0139061 0)
(-0.00812122 0.0563962 0)
(-0.0346702 0.108669 0)
(-0.0705613 0.148418 0)
(-0.105291 0.178715 0)
(-0.134587 0.191431 0)
(-0.154786 0.184316 0)
(-0.166494 0.161522 0)
(-0.171796 0.129154 0)
(-0.173105 0.0920056 0)
(-0.17296 0.0531141 0)
(-0.172937 0.0137206 0)
(-0.173753 -0.026169 0)
(-0.175969 -0.0677634 0)
(-0.180111 -0.11244 0)
(-0.185488 -0.161371 0)
(-0.188392 -0.213397 0)
(-0.180875 -0.259455 0)
(-0.152954 -0.273254 0)
(-0.0983944 -0.204537 0)
(-0.00883897 -0.0147704 0)
(-0.00599235 0.0765708 0)
(-0.0291835 0.138728 0)
(-0.0602768 0.178722 0)
(-0.0883317 0.205525 0)
(-0.110079 0.212218 0)
(-0.12343 0.198207 0)
(-0.12989 0.169334 0)
(-0.131747 0.132564 0)
(-0.131473 0.0929436 0)
(-0.131073 0.0532361 0)
(-0.131297 0.0141765 0)
(-0.132352 -0.0246564 0)
(-0.134719 -0.0643815 0)
(-0.1391 -0.106349 0)
(-0.146083 -0.152646 0)
(-0.154277 -0.205667 0)
(-0.157589 -0.263341 0)
(-0.145619 -0.305901 0)
(-0.111334 -0.275361 0)
(-0.0305916 -0.0747866 0)
(-0.00264892 0.092225 0)
(-0.0199614 0.163391 0)
(-0.0442559 0.202757 0)
(-0.0651302 0.225509 0)
(-0.0801978 0.22663 0)
(-0.0885228 0.206966 0)
(-0.0919263 0.173535 0)
(-0.0925435 0.133844 0)
(-0.0925004 0.0929801 0)
(-0.0930264 0.0532496 0)
(-0.0942055 0.0147539 0)
(-0.0959491 -0.0233576 0)
(-0.0984467 -0.0619698 0)
(-0.102224 -0.101899 0)
(-0.108444 -0.144918 0)
(-0.117817 -0.195091 0)
(-0.127065 -0.256803 0)
(-0.125662 -0.320948 0)
(-0.106771 -0.332478 0)
(-0.0370186 -0.161858 0)
(0.00121295 0.101124 0)
(-0.00870361 0.180904 0)
(-0.0250945 0.220044 0)
(-0.0388723 0.23947 0)
(-0.0482117 0.236413 0)
(-0.0529555 0.212751 0)
(-0.0547405 0.176281 0)
(-0.0552241 0.134898 0)
(-0.055954 0.0936313 0)
(-0.0575169 0.0542602 0)
(-0.0596909 0.0163174 0)
(-0.062319 -0.0213345 0)
(-0.0654018 -0.059443 0)
(-0.0691478 -0.0983442 0)
(-0.074529 -0.138891 0)
(-0.083161 -0.184935 0)
(-0.0950662 -0.244902 0)
(-0.100117 -0.321596 0)
(-0.0947455 -0.369822 0)
(-0.0307715 -0.24059 0)
(0.00500791 0.102212 0)
(0.00294066 0.1903 0)
(-0.0052384 0.230361 0)
(-0.0122332 0.247353 0)
(-0.0165476 0.241456 0)
(-0.0183622 0.215545 0)
(-0.0189491 0.177754 0)
(-0.0193601 0.135982 0)
(-0.0205565 0.0950187 0)
(-0.0227258 0.0562573 0)
(-0.025561 0.0189483 0)
(-0.0289778 -0.0181396 0)
(-0.0329912 -0.0557832 0)
(-0.0375768 -0.094143 0)
(-0.0433182 -0.133278 0)
(-0.0515375 -0.175827 0)
(-0.0651219 -0.231772 0)
(-0.0740144 -0.315119 0)
(-0.0810105 -0.394196 0)
(-0.0228849 -0.304924 0)
(0.00822947 0.0958492 0)
(0.0139254 0.191237 0)
(0.0138313 0.233818 0)
(0.0134479 0.250072 0)
(0.0140673 0.243169 0)
(0.0152641 0.216758 0)
(0.0161297 0.178984 0)
(0.016185 0.137583 0)
(0.015027 0.0971415 0)
(0.012713 0.0589841 0)
(0.00953853 0.0223878 0)
(0.00548809 -0.0138677 0)
(0.000420892 -0.0506675 0)
(-0.00555754 -0.0882096 0)
(-0.0128602 -0.126209 0)
(-0.021757 -0.165874 0)
(-0.0375475 -0.216572 0)
(-0.0488917 -0.301377 0)
(-0.0679603 -0.406014 0)
(-0.014493 -0.357797 0)
(0.0100017 0.0831867 0)
(0.0228491 0.183762 0)
(0.0303958 0.22999 0)
(0.0362311 0.246644 0)
(0.0418068 0.239966 0)
(0.0466841 0.214487 0)
(0.0500379 0.178031 0)
(0.0516111 0.13797 0)
(0.0513586 0.0987016 0)
(0.0495094 0.0616144 0)
(0.0463387 0.0261748 0)
(0.0417794 -0.00876626 0)
(0.0356503 -0.0441597 0)
(0.0280316 -0.0802831 0)
(0.018167 -0.116815 0)
(0.00707367 -0.154124 0)
(-0.0121625 -0.2002 0)
(-0.0247512 -0.283318 0)
(-0.0561 -0.40862 0)
(-0.00623005 -0.399792 0)
(0.00952891 0.0664281 0)
(0.0282449 0.168278 0)
(0.0433029 0.219103 0)
(0.0556347 0.237954 0)
(0.0667465 0.233143 0)
(0.0762711 0.210074 0)
(0.0833282 0.176112 0)
(0.0876027 0.138143 0)
(0.089179 0.100471 0)
(0.0883884 0.0647014 0)
(0.0855785 0.0306798 0)
(0.0805846 -0.00262758 0)
(0.0732287 -0.0359053 0)
(0.0637594 -0.0697756 0)
(0.0508762 -0.104065 0)
(0.0363005 -0.138751 0)
(0.0122388 -0.180199 0)
(-0.000739635 -0.260193 0)
(-0.045221 -0.404527 0)
(0.00261522 -0.434458 0)
(0.00667274 0.0491497 0)
(0.0284815 0.147071 0)
(0.0497954 0.200853 0)
(0.0683486 0.221433 0)
(0.0855499 0.218641 0)
(0.100998 0.198765 0)
(0.11343 0.168524 0)
(0.122153 0.134032 0)
(0.127089 0.099312 0)
(0.128518 0.0660904 0)
(0.126732 0.0346008 0)
(0.121824 0.00402465 0)
(0.113304 -0.0260564 0)
(0.101812 -0.0564998 0)
(0.0851559 -0.0873849 0)
(0.0664048 -0.119378 0)
(0.0368815 -0.157156 0)
(0.0228773 -0.234341 0)
(-0.0349755 -0.397049 0)
(0.0132497 -0.463032 0)
(0.00228648 0.0348389 0)
(0.0228601 0.122671 0)
(0.0495539 0.177697 0)
(0.0748077 0.200239 0)
(0.0990713 0.199897 0)
(0.121594 0.183714 0)
(0.140718 0.157984 0)
(0.155222 0.127937 0)
(0.164695 0.0971882 0)
(0.16937 0.0674534 0)
(0.169224 0.0393169 0)
(0.164981 0.0123533 0)
(0.155293 -0.0138125 0)
(0.141811 -0.0399278 0)
(0.12098 -0.0663345 0)
(0.0979455 -0.0946195 0)
(0.0627385 -0.129587 0)
(0.0459202 -0.205171 0)
(-0.02335 -0.385754 0)
(0.0282123 -0.484635 0)
(-0.00336386 0.0291708 0)
(0.00950473 0.100964 0)
(0.0358317 0.147038 0)
(0.0671089 0.167273 0)
(0.0994828 0.168392 0)
(0.130726 0.15626 0)
(0.15829 0.13611 0)
(0.180448 0.112062 0)
(0.196178 0.087178 0)
(0.205834 0.062987 0)
(0.208631 0.0402396 0)
(0.206309 0.0187824 0)
(0.196219 -0.00173356 0)
(0.181849 -0.0218555 0)
(0.157536 -0.0420656 0)
(0.131506 -0.0654969 0)
(0.0907706 -0.099297 0)
(0.0687777 -0.178154 0)
(-0.00499356 -0.369209 0)
(0.0518498 -0.491168 0)
(-0.0136252 0.0190703 0)
(-0.007506 0.0882206 0)
(0.0183875 0.123357 0)
(0.0548842 0.13592 0)
(0.0953199 0.135289 0)
(0.135037 0.126135 0)
(0.170709 0.111651 0)
(0.200042 0.0941223 0)
(0.221563 0.0759576 0)
(0.236339 0.0581425 0)
(0.242264 0.0416553 0)
(0.243137 0.0263362 0)
(0.234038 0.0123901 0)
(0.222484 -0.00107891 0)
(0.198069 -0.0147956 0)
(0.174809 -0.0335608 0)
(0.131329 -0.0662814 0)
(0.106665 -0.145079 0)
(0.0369335 -0.325981 0)
(0.0921541 -0.455796 0)
(-0.10576 0.0828081 0)
(-0.0775689 0.069269 0)
(-0.048735 0.0730211 0)
(0.00301444 0.0771771 0)
(0.0558309 0.0773311 0)
(0.107874 0.073045 0)
(0.154437 0.0658008 0)
(0.196251 0.0565419 0)
(0.227994 0.047062 0)
(0.255854 0.0376071 0)
(0.271512 0.0291717 0)
(0.286672 0.0213893 0)
(0.287271 0.0148453 0)
(0.29169 0.00861356 0)
(0.275991 0.00181016 0)
(0.269368 -0.00931695 0)
(0.230693 -0.034934 0)
(0.217371 -0.0951182 0)
(0.150038 -0.229709 0)
(0.170641 -0.341506 0)
(0.130121 0.103864 0)
(0.158646 0.0755331 0)
(0.212672 0.0535585 0)
(0.271132 0.0418723 0)
(0.323458 0.0360648 0)
(0.375503 0.0320207 0)
(0.41968 0.028948 0)
(0.464585 0.0255967 0)
(0.497365 0.0229294 0)
(0.532383 0.0197546 0)
(0.551721 0.0176221 0)
(0.577535 0.0147093 0)
(0.5838 0.0132983 0)
(0.602361 0.0105026 0)
(0.594103 0.00956234 0)
(0.602969 0.00516338 0)
(0.567537 0.000229219 0)
(0.54775 -0.0182243 0)
(0.436044 -0.0503984 0)
(0.336934 -0.10141 0)
)
;

boundaryField
{
    movingWall
    {
        type            fixedValue;
        value           uniform (1 0 0);
    }
    fixedWalls
    {
        type            noSlip;
    }
    frontAndBack
    {
        type            empty;
    }
}


// ************************************************************************* //
