/*--------------------------------*- C++ -*----------------------------------*\
| =========                 |                                                 |
| \\      /  F ield         | OpenFOAM: The Open Source CFD Toolbox           |
|  \\    /   O peration     | Version:  2212                                  |
|   \\  /    A nd           | Website:  www.openfoam.com                      |
|    \\/     M anipulation  |                                                 |
\*---------------------------------------------------------------------------*/
FoamFile
{
    version     2.0;
    format      ascii;
    arch        "LSB;label=32;scalar=64";
    class       surfaceScalarField;
    location    "4.82";
    object      phi;
}
// * * * * * * * * * * * * * * * * * * * * * * * * * * * * * * * * * * * * * //

dimensions      [0 3 -1 0 0 0 0];

oriented        oriented;

internalField   nonuniform List<scalar> 
760
(
1.55083e-07
-1.55045e-07
2.91412e-07
-1.3633e-07
3.07229e-07
-1.58178e-08
1.80965e-07
1.26265e-07
-1.22316e-07
3.03281e-07
-6.6614e-07
5.43824e-07
-1.48239e-06
8.16248e-07
-2.4844e-06
1.00201e-06
-3.47119e-06
9.86786e-07
-4.21036e-06
7.39172e-07
-4.53503e-06
3.24677e-07
-4.34794e-06
-1.87099e-07
-3.59252e-06
-7.55416e-07
-2.38253e-06
-1.20999e-06
-9.47518e-07
-1.43501e-06
3.3824e-07
-1.28576e-06
1.08182e-06
-7.43581e-07
1.02847e-06
5.33549e-08
4.59428e-07
5.69037e-07
4.59428e-07
1.23274e-07
-2.78319e-07
7.14009e-08
-8.44567e-08
-2.99945e-07
3.55528e-07
-1.07954e-06
9.05862e-07
-2.31212e-06
1.53586e-06
-3.91764e-06
2.14934e-06
-5.64683e-06
2.54543e-06
-7.18761e-06
2.5428e-06
-8.31574e-06
2.11492e-06
-8.92134e-06
1.34477e-06
-8.95727e-06
3.60612e-07
-8.40082e-06
-7.43551e-07
-7.28317e-06
-1.87307e-06
-5.6372e-06
-2.85596e-06
-3.60645e-06
-3.46576e-06
-1.49497e-06
-3.39724e-06
1.7171e-07
-2.41026e-06
8.53715e-07
-6.2865e-07
5.23666e-07
8.99087e-07
9.83094e-07
-1.28933e-07
-1.49387e-07
-6.35079e-07
4.21689e-07
-1.62331e-06
1.34376e-06
-3.1343e-06
2.41685e-06
-5.04308e-06
3.44465e-06
-7.05193e-06
4.15818e-06
-8.84663e-06
4.34014e-06
-1.02472e-05
3.9434e-06
-1.12019e-05
3.06955e-06
-1.17028e-05
1.84573e-06
-1.16987e-05
3.56473e-07
-1.12425e-05
-1.19972e-06
-1.03141e-05
-2.80147e-06
-8.85914e-06
-4.31094e-06
-6.85747e-06
-5.46743e-06
-4.39781e-06
-5.8569e-06
-1.87877e-06
-4.92931e-06
-8.89114e-08
-2.41851e-06
2.93669e-07
5.16507e-07
1.27676e-06
-4.99898e-07
3.50511e-07
-1.55664e-06
1.47843e-06
-3.11051e-06
2.89763e-06
-5.06475e-06
4.37109e-06
-7.16076e-06
5.54066e-06
-9.09212e-06
6.08953e-06
-1.0657e-05
5.90498e-06
-1.18125e-05
5.09892e-06
-1.25866e-05
3.84371e-06
-1.30143e-05
2.27336e-06
-1.30806e-05
4.22785e-07
-1.28435e-05
-1.43685e-06
-1.22646e-05
-3.38029e-06
-1.12422e-05
-5.33338e-06
-9.64506e-06
-7.06457e-06
-7.34849e-06
-8.15346e-06
-4.39077e-06
-7.88704e-06
-1.37751e-06
-5.43177e-06
1.19685e-07
-9.80685e-07
1.39645e-06
-8.59091e-07
1.2096e-06
-2.35334e-06
2.97268e-06
-4.21692e-06
4.76121e-06
-6.2561e-06
6.41027e-06
-8.19118e-06
7.47574e-06
-9.80009e-06
7.69844e-06
-1.10058e-05
7.11073e-06
-1.18347e-05
5.92778e-06
-1.23486e-05
4.3576e-06
-1.26205e-05
2.54523e-06
-1.27411e-05
5.43403e-07
-1.26977e-05
-1.48018e-06
-1.24811e-05
-3.59689e-06
-1.20119e-05
-5.80265e-06
-1.11033e-05
-7.97311e-06
-9.46755e-06
-9.78925e-06
-6.80568e-06
-1.05489e-05
-3.21657e-06
-9.02088e-06
-2.61893e-07
-3.93536e-06
1.13455e-06
-1.08218e-06
2.29178e-06
-2.77258e-06
4.66309e-06
-4.65835e-06
6.64697e-06
-6.50873e-06
8.26065e-06
-8.10027e-06
9.06728e-06
-9.30187e-06
8.90005e-06
-1.0109e-05
7.91785e-06
-1.05865e-05
6.4053e-06
-1.08249e-05
4.59598e-06
-1.09244e-05
2.64475e-06
-1.10067e-05
6.25732e-07
-1.10595e-05
-1.42739e-06
-1.10982e-05
-3.55821e-06
-1.10932e-05
-5.80769e-06
-1.08901e-05
-8.17618e-06
-1.01614e-05
-1.0518e-05
-8.41314e-06
-1.22971e-05
-5.23093e-06
-1.22031e-05
-1.15654e-06
-8.00975e-06
-2.19872e-08
-1.10518e-06
3.39696e-06
-2.74568e-06
6.30359e-06
-4.43613e-06
8.33742e-06
-5.96534e-06
9.78986e-06
-7.17357e-06
1.02755e-05
-7.99801e-06
9.72449e-06
-8.47579e-06
8.39563e-06
-8.69374e-06
6.62325e-06
-8.75574e-06
4.65798e-06
-8.75952e-06
2.64854e-06
-8.78846e-06
6.54672e-07
-8.86163e-06
-1.35423e-06
-8.9987e-06
-3.42113e-06
-9.21072e-06
-5.59567e-06
-9.44014e-06
-7.94676e-06
-9.45447e-06
-1.05036e-05
-8.73423e-06
-1.30174e-05
-6.52294e-06
-1.44144e-05
-2.41766e-06
-1.2115e-05
-2.43965e-06
-9.3075e-07
4.32771e-06
-2.33603e-06
7.70886e-06
-3.71743e-06
9.71882e-06
-4.89158e-06
1.0964e-05
-5.75748e-06
1.11414e-05
-6.29774e-06
1.02648e-05
-6.56898e-06
8.66687e-06
-6.66214e-06
6.71641e-06
-6.67387e-06
4.66971e-06
-6.67803e-06
2.65269e-06
-6.71124e-06
6.8789e-07
-6.79095e-06
-1.27452e-06
-6.93833e-06
-3.27375e-06
-7.1838e-06
-5.35021e-06
-7.54376e-06
-7.5868e-06
-7.92587e-06
-1.01215e-05
-7.91887e-06
-1.30244e-05
-6.7051e-06
-1.56281e-05
-3.57802e-06
-1.52421e-05
-6.01766e-06
-6.21421e-07
4.94914e-06
-1.6793e-06
8.76674e-06
-2.70831e-06
1.07478e-05
-3.54369e-06
1.17994e-05
-4.12971e-06
1.17274e-05
-4.47604e-06
1.06111e-05
-4.64121e-06
8.83204e-06
-4.70376e-06
6.77896e-06
-4.73653e-06
4.70248e-06
-4.78382e-06
2.69998e-06
-4.85617e-06
7.60236e-07
-4.96029e-06
-1.17041e-06
-5.10628e-06
-3.12775e-06
-5.32295e-06
-5.13354e-06
-5.66522e-06
-7.24453e-06
-6.14564e-06
-9.64113e-06
-6.54414e-06
-1.26259e-05
-6.11873e-06
-1.60535e-05
-3.91712e-06
-1.74437e-05
-9.93479e-06
-2.30796e-07
5.17993e-06
-8.88537e-07
9.42448e-06
-1.55745e-06
1.14167e-05
-2.08456e-06
1.23265e-05
-2.4419e-06
1.20847e-05
-2.65348e-06
1.08227e-05
-2.76739e-06
8.94596e-06
-2.83706e-06
6.84862e-06
-2.90756e-06
4.77299e-06
-3.00129e-06
2.79371e-06
-3.12114e-06
8.80078e-07
-3.26691e-06
-1.02463e-06
-3.43898e-06
-2.95568e-06
-3.64986e-06
-4.92265e-06
-3.95081e-06
-6.94358e-06
-4.42366e-06
-9.16829e-06
-5.01409e-06
-1.20355e-05
-5.1181e-06
-1.59495e-05
-3.55465e-06
-1.90072e-05
-1.34894e-05
1.6345e-07
5.01648e-06
-6.88633e-08
9.65679e-06
-4.0039e-07
1.17483e-05
-6.50064e-07
1.25762e-05
-8.03582e-07
1.22383e-05
-8.91959e-07
1.0911e-05
-9.54702e-07
9.0087e-06
-1.02384e-06
6.91776e-06
-1.11613e-06
4.86527e-06
-1.23933e-06
2.91692e-06
-1.39585e-06
1.03659e-06
-1.58785e-06
-8.3263e-07
-1.81414e-06
-2.72939e-06
-2.07295e-06
-4.66385e-06
-2.39233e-06
-6.62419e-06
-2.86508e-06
-8.69553e-06
-3.55449e-06
-1.1346e-05
-4.02273e-06
-1.54813e-05
-3.02405e-06
-2.00058e-05
-1.65135e-05
4.99489e-07
4.51699e-06
6.97008e-07
9.45927e-06
7.40205e-07
1.17051e-05
7.75988e-07
1.25404e-05
8.21241e-07
1.2193e-05
8.50445e-07
1.08818e-05
8.43676e-07
9.01547e-06
7.92602e-07
6.96883e-06
6.98551e-07
4.95932e-06
5.63464e-07
3.052e-06
3.82551e-07
1.21751e-06
1.49584e-07
-5.99664e-07
-1.37384e-07
-2.44242e-06
-4.85007e-07
-4.31623e-06
-8.98017e-07
-6.21118e-06
-1.4217e-06
-8.17185e-06
-2.20329e-06
-1.05644e-05
-2.95488e-06
-1.47297e-05
-2.46147e-06
-2.04992e-05
-1.8975e-05
7.54164e-07
3.76283e-06
1.35058e-06
8.86285e-06
1.7427e-06
1.1313e-05
2.0718e-06
1.22113e-05
2.34476e-06
1.192e-05
2.53106e-06
1.06955e-05
2.62221e-06
8.92432e-06
2.62894e-06
6.96211e-06
2.56565e-06
5.02261e-06
2.43971e-06
3.17795e-06
2.2442e-06
1.41302e-06
1.96513e-06
-3.20602e-07
1.60229e-06
-2.07958e-06
1.15065e-06
-3.86459e-06
6.05357e-07
-5.66589e-06
-8.59922e-08
-7.4805e-06
-9.6e-07
-9.69044e-06
-1.92321e-06
-1.37665e-05
-1.92715e-06
-2.04953e-05
-2.09021e-05
8.68316e-07
2.89451e-06
1.80574e-06
7.92543e-06
2.54624e-06
1.05725e-05
3.18637e-06
1.15712e-05
3.73339e-06
1.1373e-05
4.14375e-06
1.02852e-05
4.40129e-06
8.66678e-06
4.52e-06
6.8434e-06
4.52332e-06
5.01929e-06
4.42698e-06
3.27429e-06
4.22936e-06
1.61064e-06
3.90044e-06
8.31415e-09
3.45691e-06
-1.63604e-06
2.87496e-06
-3.28264e-06
2.15485e-06
-4.94579e-06
1.31427e-06
-6.63992e-06
2.61639e-07
-8.6378e-06
-9.63456e-07
-1.25414e-05
-1.42973e-06
-2.0029e-05
-2.23318e-05
8.04219e-07
2.09029e-06
1.94932e-06
6.78032e-06
2.99029e-06
9.53149e-06
3.96247e-06
1.0599e-05
4.8386e-06
1.04969e-05
5.55242e-06
9.57134e-06
6.06457e-06
8.15464e-06
6.37804e-06
6.52992e-06
6.51422e-06
4.88312e-06
6.49186e-06
3.29664e-06
6.3102e-06
1.79231e-06
5.96495e-06
3.53564e-07
5.42624e-06
-1.09734e-06
4.69918e-06
-2.55558e-06
3.77577e-06
-4.02238e-06
2.68443e-06
-5.54858e-06
1.38355e-06
-7.33693e-06
-1.5834e-07
-1.09995e-05
-9.16023e-07
-1.92713e-05
-2.32479e-05
5.76001e-07
1.51429e-06
1.75525e-06
5.60107e-06
3.0917e-06
8.19504e-06
4.44116e-06
9.24954e-06
5.70622e-06
9.23184e-06
6.7882e-06
8.48937e-06
7.62156e-06
7.32127e-06
8.19367e-06
5.95781e-06
8.5173e-06
4.5595e-06
8.60985e-06
3.20409e-06
8.47838e-06
1.92378e-06
8.1206e-06
7.11343e-07
7.49287e-06
-4.69616e-07
6.61193e-06
-1.67463e-06
5.46482e-06
-2.87526e-06
4.09238e-06
-4.17615e-06
2.56519e-06
-5.80973e-06
9.52119e-07
-9.38646e-06
-1.46688e-07
-1.81725e-05
-2.33946e-05
1.51254e-07
1.36304e-06
1.03677e-06
4.71555e-06
2.51201e-06
6.71981e-06
4.23221e-06
7.52934e-06
5.95267e-06
7.51138e-06
7.48595e-06
6.95609e-06
8.72934e-06
6.07787e-06
9.6532e-06
5.03395e-06
1.02528e-05
3.95988e-06
1.05403e-05
2.9166e-06
1.05219e-05
1.9422e-06
1.02035e-05
1.02976e-06
9.541e-06
1.92864e-07
8.55343e-06
-6.87072e-07
7.2327e-06
-1.55453e-06
5.62976e-06
-2.57321e-06
3.9041e-06
-4.08407e-06
2.23617e-06
-7.71853e-06
6.51388e-07
-1.65878e-05
-2.27432e-05
-5.16673e-07
1.87971e-06
1.99744e-07
3.99913e-06
1.75338e-06
5.16618e-06
3.81493e-06
5.46779e-06
5.96859e-06
5.35771e-06
7.92836e-06
4.99631e-06
9.55772e-06
4.44851e-06
1.08154e-05
3.77624e-06
1.16841e-05
3.09117e-06
1.21806e-05
2.42011e-06
1.2309e-05
1.81382e-06
1.20894e-05
1.24935e-06
1.15445e-05
7.37762e-07
1.0647e-05
2.10439e-07
9.40106e-06
-3.08574e-07
7.87774e-06
-1.04989e-06
6.26278e-06
-2.46911e-06
4.45417e-06
-5.90992e-06
2.05455e-06
-1.41881e-05
-2.06886e-05
-4.17872e-06
6.05843e-06
-3.64182e-06
3.46223e-06
-1.24812e-06
2.77248e-06
1.54859e-06
2.67108e-06
4.28633e-06
2.61998e-06
6.81915e-06
2.46349e-06
9.03429e-06
2.23338e-06
1.08718e-05
1.93869e-06
1.23138e-05
1.64922e-06
1.33873e-05
1.34656e-06
1.41097e-05
1.09145e-06
1.45255e-05
8.33551e-07
1.46229e-05
6.40332e-07
1.44118e-05
4.21587e-07
1.38849e-05
2.18282e-07
1.30578e-05
-2.22739e-07
1.19196e-05
-1.33098e-06
1.01112e-05
-4.10144e-06
5.63736e-06
-9.71433e-06
-1.50513e-05
6.05844e-06
9.52067e-06
1.22931e-05
1.49642e-05
1.75842e-05
2.00477e-05
2.22811e-05
2.42198e-05
2.5869e-05
2.72155e-05
2.8307e-05
2.91405e-05
2.97809e-05
3.02025e-05
3.04207e-05
3.0198e-05
2.8867e-05
2.47656e-05
1.50513e-05
)
;

boundaryField
{
    movingWall
    {
        type            calculated;
        value           uniform 0;
    }
    fixedWalls
    {
        type            calculated;
        value           uniform 0;
    }
    frontAndBack
    {
        type            empty;
        value           nonuniform List<scalar> 0();
    }
}


// ************************************************************************* //
