/*--------------------------------*- C++ -*----------------------------------*\
| =========                 |                                                 |
| \\      /  F ield         | OpenFOAM: The Open Source CFD Toolbox           |
|  \\    /   O peration     | Version:  2212                                  |
|   \\  /    A nd           | Website:  www.openfoam.com                      |
|    \\/     M anipulation  |                                                 |
\*---------------------------------------------------------------------------*/
FoamFile
{
    version     2.0;
    format      ascii;
    arch        "LSB;label=32;scalar=64";
    class       volScalarField;
    location    "3.045";
    object      p;
}
// * * * * * * * * * * * * * * * * * * * * * * * * * * * * * * * * * * * * * //

dimensions      [0 2 -2 0 0 0 0];

internalField   nonuniform List<scalar> 
400
(
7.12145e-09
-0.000146542
-0.000513403
-0.00102857
-0.00166334
-0.00239148
-0.00305533
-0.00345181
-0.00341312
-0.00278843
-0.00143214
0.000681622
0.00325571
0.00549541
0.00654844
0.00602724
0.004208
0.00241846
0.00139408
0.00131547
0.000117015
-5.09531e-05
-0.000354319
-0.000728047
-0.00119277
-0.00180949
-0.00258541
-0.00337586
-0.00387779
-0.00373003
-0.00266698
-0.000699645
0.00175788
0.0040023
0.0051931
0.00488902
0.00334858
0.0016665
0.000892364
0.000966511
0.000514787
0.000259852
-6.5157e-05
-0.000527541
-0.00127822
-0.00244699
-0.003998
-0.00567081
-0.00701984
-0.0075372
-0.00688381
-0.00513471
-0.00262963
1.65255e-05
0.00199099
0.00265784
0.00199464
0.000820072
-7.14957e-05
-8.59165e-05
0.001086
0.000696227
0.000182003
-0.000727699
-0.00230628
-0.00465417
-0.00755363
-0.0105314
-0.0130057
-0.0144295
-0.0144698
-0.0131564
-0.0106954
-0.00752462
-0.00432601
-0.00183392
-0.000521917
-0.000372482
-0.00095697
-0.00158718
0.00145036
0.000879666
-4.35843e-05
-0.00181691
-0.00471011
-0.00865253
-0.0131545
-0.0175235
-0.0211198
-0.0234825
-0.024351
-0.0236056
-0.0213552
-0.0178706
-0.0135744
-0.00906324
-0.00512318
-0.00257489
-0.00186875
-0.00365505
0.00112426
0.000333099
-0.00118437
-0.0040775
-0.0084896
-0.0140509
-0.0199567
-0.0253714
-0.0296898
-0.0325924
-0.0339487
-0.0336594
-0.0317908
-0.0284762
-0.0238446
-0.0181076
-0.0118568
-0.00648141
-0.00403324
-0.00612177
-0.000196645
-0.00122061
-0.00339396
-0.00739716
-0.0131618
-0.0199712
-0.0267736
-0.0326976
-0.0372454
-0.0402512
-0.0417217
-0.041677
-0.0401742
-0.0372705
-0.0329311
-0.0270284
-0.0196721
-0.0120874
-0.00741652
-0.00738952
-0.00251332
-0.00371657
-0.00645168
-0.0113117
-0.0180118
-0.0255459
-0.0327267
-0.038734
-0.0432102
-0.0461171
-0.0475465
-0.0475956
-0.0463391
-0.0438144
-0.0399579
-0.0345184
-0.0272213
-0.0185707
-0.0112957
-0.00763847
-0.00547078
-0.00675376
-0.00985488
-0.0152211
-0.0223983
-0.0302003
-0.037402
-0.0432733
-0.0475761
-0.0503517
-0.0517292
-0.0518202
-0.050698
-0.0484109
-0.0449523
-0.0401403
-0.0335343
-0.0249477
-0.0160259
-0.00954676
-0.00853175
-0.00978814
-0.0130407
-0.0185757
-0.0258448
-0.0336026
-0.0406509
-0.0463368
-0.0504919
-0.0531856
-0.0545448
-0.0546628
-0.0536016
-0.0514237
-0.0481933
-0.0438728
-0.0381132
-0.030349
-0.0214561
-0.0136962
-0.0111979
-0.012356
-0.0155576
-0.020982
-0.0280563
-0.0355861
-0.042433
-0.0479771
-0.0520603
-0.0547353
-0.0561063
-0.0562434
-0.0551959
-0.0530317
-0.0498757
-0.0458316
-0.0407989
-0.0341006
-0.0262042
-0.0183694
-0.0131878
-0.0141637
-0.0171505
-0.0222143
-0.0288611
-0.0360381
-0.0426911
-0.0481822
-0.0522917
-0.0550205
-0.0564344
-0.056584
-0.0555096
-0.0532793
-0.0500695
-0.046098
-0.0415701
-0.0357715
-0.0290099
-0.02154
-0.0144647
-0.0151178
-0.0176737
-0.0221653
-0.0282024
-0.034938
-0.0414151
-0.046941
-0.0511787
-0.0540391
-0.055534
-0.0556921
-0.0545484
-0.0521923
-0.0488236
-0.044724
-0.0404507
-0.0351391
-0.029293
-0.0220825
-0.0151132
-0.0153224
-0.0171916
-0.0208414
-0.0260764
-0.0322839
-0.0385922
-0.0442246
-0.0486929
-0.0517789
-0.0534181
-0.0536088
-0.0523763
-0.0498292
-0.0462102
-0.0418842
-0.0374718
-0.0322357
-0.0273609
-0.0196751
-0.0152534
-0.0149737
-0.0158932
-0.018396
-0.0226109
-0.0281849
-0.0343134
-0.0401099
-0.0449067
-0.0483227
-0.0501901
-0.0504553
-0.0491503
-0.0463689
-0.0424167
-0.0377065
-0.032891
-0.0275383
-0.0238164
-0.0141328
-0.0150054
-0.0143094
-0.0139818
-0.0149995
-0.0179883
-0.0228318
-0.0287656
-0.0347689
-0.0399804
-0.0438345
-0.0460404
-0.0464759
-0.0451643
-0.0421699
-0.037837
-0.0325986
-0.0271947
-0.0215408
-0.018169
-0.004031
-0.0144579
-0.0134654
-0.0116075
-0.0109534
-0.0126475
-0.0167554
-0.0225149
-0.0287572
-0.0344456
-0.0388322
-0.0414991
-0.0422298
-0.0410181
-0.0379017
-0.0331755
-0.0272078
-0.0207165
-0.0137261
-0.00751942
0.0153809
-0.0144804
-0.0126041
-0.00872858
-0.00640294
-0.00698443
-0.0105474
-0.0162373
-0.0227547
-0.0289564
-0.03394
-0.0371828
-0.0383513
-0.0373911
-0.0342993
-0.0292181
-0.0221657
-0.0133544
-0.00167396
0.0154185
0.0559762
-0.0117962
-0.0119037
-0.00601962
-0.00221266
-0.00214217
-0.00553452
-0.0113295
-0.018154
-0.0248366
-0.0303688
-0.0341974
-0.0359042
-0.0353942
-0.0323967
-0.0267567
-0.0176658
-0.00390509
0.0191945
0.0591892
0.128552
-0.0294958
-0.0107916
-0.00102593
0.00251992
0.00193915
-0.00182567
-0.00789632
-0.0150313
-0.022066
-0.0279682
-0.0321618
-0.0342079
-0.0339743
-0.0310433
-0.0247668
-0.0129575
0.00869606
0.0499474
0.121505
0.224909
)
;

boundaryField
{
    movingWall
    {
        type            zeroGradient;
    }
    fixedWalls
    {
        type            zeroGradient;
    }
    frontAndBack
    {
        type            empty;
    }
}


// ************************************************************************* //
