/*--------------------------------*- C++ -*----------------------------------*\
| =========                 |                                                 |
| \\      /  F ield         | OpenFOAM: The Open Source CFD Toolbox           |
|  \\    /   O peration     | Version:  2212                                  |
|   \\  /    A nd           | Website:  www.openfoam.com                      |
|    \\/     M anipulation  |                                                 |
\*---------------------------------------------------------------------------*/
FoamFile
{
    version     2.0;
    format      ascii;
    arch        "LSB;label=32;scalar=64";
    class       volScalarField;
    location    "2.905";
    object      p;
}
// * * * * * * * * * * * * * * * * * * * * * * * * * * * * * * * * * * * * * //

dimensions      [0 2 -2 0 0 0 0];

internalField   nonuniform List<scalar> 
400
(
-4.39626e-09
-0.000145413
-0.000508293
-0.00101816
-0.00164654
-0.00236664
-0.0030239
-0.00341661
-0.00337668
-0.00275406
-0.00140542
0.000694346
0.00325323
0.00548439
0.00654243
0.00603986
0.00424329
0.0024681
0.00144687
0.0013658
0.00011702
-4.94294e-05
-0.000349296
-0.000719783
-0.00118051
-0.00179029
-0.00255598
-0.0033354
-0.00382935
-0.00368038
-0.00262466
-0.000671121
0.00177123
0.00400664
0.00520085
0.00491232
0.00339346
0.00172158
0.000948661
0.00101866
0.000509632
0.000258304
-6.28619e-05
-0.000520345
-0.00126186
-0.00241522
-0.00394583
-0.00559742
-0.00693014
-0.00744166
-0.00679435
-0.00505821
-0.00256967
6.25167e-05
0.00203144
0.0027025
0.00204968
0.000880988
-1.0132e-05
-2.87002e-05
0.00107126
0.000686175
0.000179845
-0.000716655
-0.00227276
-0.00458915
-0.00745286
-0.0103968
-0.0128457
-0.0142575
-0.0142998
-0.0129985
-0.0105575
-0.00740946
-0.00423104
-0.00175364
-0.000451476
-0.000308542
-0.000895451
-0.00152567
0.0014227
0.000860507
-4.65853e-05
-0.00179174
-0.0046434
-0.00853505
-0.0129855
-0.0173101
-0.0208743
-0.0232199
-0.0240865
-0.0233542
-0.0211278
-0.0176735
-0.0134105
-0.00893299
-0.00502488
-0.00250233
-0.00181027
-0.00358826
0.00109147
0.000312611
-0.00117802
-0.00402567
-0.00837658
-0.0138707
-0.0197143
-0.0250791
-0.0293637
-0.032249
-0.0336042
-0.03333
-0.0314879
-0.0282076
-0.0236159
-0.0179235
-0.0117204
-0.00638909
-0.00396638
-0.00604908
-0.000222044
-0.00123011
-0.00336607
-0.00730865
-0.0129971
-0.0197292
-0.0264647
-0.0323379
-0.036853
-0.0398436
-0.0413152
-0.041287
-0.0398124
-0.036946
-0.0326507
-0.0267977
-0.0194957
-0.0119661
-0.00733578
-0.00732784
-0.00251824
-0.00370326
-0.00639328
-0.0111825
-0.0177979
-0.0252509
-0.0323643
-0.038322
-0.0427674
-0.0456611
-0.0470935
-0.04716
-0.045933
-0.0434477
-0.0396382
-0.034251
-0.0270099
-0.0184186
-0.0111997
-0.00758161
-0.00544755
-0.00671153
-0.00976369
-0.0150542
-0.022144
-0.0298652
-0.0370016
-0.0428259
-0.0471004
-0.0498654
-0.051248
-0.0513576
-0.0502654
-0.0480177
-0.0446065
-0.0398476
-0.0332971
-0.0247683
-0.0159041
-0.00946971
-0.0084809
-0.00971856
-0.0129215
-0.0183802
-0.0255635
-0.0332434
-0.04023
-0.0458724
-0.0500029
-0.0526896
-0.0540572
-0.0541955
-0.053164
-0.0510235
-0.0478378
-0.0435685
-0.0378624
-0.0301515
-0.0213077
-0.0135845
-0.011127
-0.0122667
-0.0154203
-0.0207712
-0.0277638
-0.0352203
-0.0420097
-0.0475144
-0.051577
-0.0542491
-0.055632
-0.0557915
-0.0547729
-0.052643
-0.049527
-0.0455298
-0.0405476
-0.0338976
-0.0260413
-0.0182325
-0.0131068
-0.0140655
-0.0170076
-0.0220033
-0.0285743
-0.035683
-0.0422824
-0.0477376
-0.0518298
-0.054559
-0.0559874
-0.0561607
-0.0551144
-0.0529159
-0.049741
-0.0458113
-0.0413303
-0.0355766
-0.0288479
-0.0213954
-0.0143826
-0.0150219
-0.0175383
-0.0219693
-0.0279373
-0.034609
-0.0410351
-0.0465268
-0.0507487
-0.0536107
-0.0551211
-0.0553035
-0.0541876
-0.0518606
-0.0485234
-0.0444618
-0.0402331
-0.0349656
-0.0291462
-0.0219491
-0.0150355
-0.0152372
-0.0170748
-0.0206731
-0.0258464
-0.0319938
-0.038252
-0.0438496
-0.048301
-0.0513873
-0.0530409
-0.0532544
-0.0520496
-0.0495308
-0.0459423
-0.0416535
-0.0372875
-0.0320961
-0.0272407
-0.0195719
-0.0151835
-0.0149037
-0.015803
-0.0182658
-0.0224275
-0.0279444
-0.0340215
-0.0397797
-0.0445554
-0.0479681
-0.0498472
-0.0501344
-0.0488558
-0.0461037
-0.0421844
-0.0375146
-0.0327492
-0.0274443
-0.0237394
-0.0140791
-0.014946
-0.0142563
-0.0139225
-0.0149151
-0.0178609
-0.0226495
-0.0285285
-0.0344877
-0.0396716
-0.0435164
-0.0457294
-0.0461842
-0.0448998
-0.0419381
-0.0376437
-0.0324526
-0.0271045
-0.0215029
-0.0181658
-0.00404321
-0.0144122
-0.0134303
-0.0115824
-0.0109214
-0.0125829
-0.0166375
-0.0223375
-0.0285279
-0.0341804
-0.0385502
-0.0412184
-0.0419651
-0.0407808
-0.0377028
-0.0330233
-0.027113
-0.0206882
-0.013763
-0.00761039
0.0152933
-0.0144543
-0.0125895
-0.00873894
-0.00642475
-0.00698349
-0.0104944
-0.0161206
-0.0225789
-0.0287366
-0.0336958
-0.0369343
-0.0381165
-0.0371846
-0.0341328
-0.0291048
-0.0221209
-0.0133924
-0.00179637
0.0152345
0.0558156
-0.0117901
-0.0119167
-0.00607456
-0.00228649
-0.00219465
-0.0055347
-0.0112627
-0.0180226
-0.0246547
-0.0301568
-0.0339765
-0.0356935
-0.0352103
-0.0322555
-0.026675
-0.0176599
-0.00399111
0.0190156
0.0589592
0.128354
-0.0294909
-0.0108262
-0.00110652
0.00242175
0.00186198
-0.0018506
-0.00785324
-0.0149214
-0.0219027
-0.0277713
-0.0319527
-0.0340066
-0.0337984
-0.0309092
-0.0246898
-0.0129544
0.00860657
0.0497735
0.121296
0.224723
)
;

boundaryField
{
    movingWall
    {
        type            zeroGradient;
    }
    fixedWalls
    {
        type            zeroGradient;
    }
    frontAndBack
    {
        type            empty;
    }
}


// ************************************************************************* //
