/*--------------------------------*- C++ -*----------------------------------*\
| =========                 |                                                 |
| \\      /  F ield         | OpenFOAM: The Open Source CFD Toolbox           |
|  \\    /   O peration     | Version:  2212                                  |
|   \\  /    A nd           | Website:  www.openfoam.com                      |
|    \\/     M anipulation  |                                                 |
\*---------------------------------------------------------------------------*/
FoamFile
{
    version     2.0;
    format      ascii;
    arch        "LSB;label=32;scalar=64";
    class       volVectorField;
    location    "1.445";
    object      U;
}
// * * * * * * * * * * * * * * * * * * * * * * * * * * * * * * * * * * * * * //

dimensions      [0 1 -1 0 0 0 0];

internalField   nonuniform List<vector> 
400
(
(0.000542991 -0.00064375 0)
(0.0010133 -0.000474393 0)
(0.000434199 -0.000205437 0)
(-0.00111534 9.80136e-05 0)
(-0.00405059 0.000597473 0)
(-0.00902879 0.00141726 0)
(-0.0166545 0.00264005 0)
(-0.0270687 0.00416787 0)
(-0.0393757 0.00550242 0)
(-0.0513216 0.0057882 0)
(-0.059886 0.00437634 0)
(-0.0624847 0.0014873 0)
(-0.0576552 -0.00189038 0)
(-0.0450988 -0.0051734 0)
(-0.0274663 -0.00708944 0)
(-0.00789571 -0.0065699 0)
(0.0076806 -0.00379986 0)
(0.0138154 0.00101924 0)
(0.00989428 0.00371083 0)
(0.0028906 0.00290201 0)
(-0.000148479 -0.000929987 0)
(-0.00208592 0.000762857 0)
(-0.00681488 0.00261001 0)
(-0.0141517 0.00490275 0)
(-0.0250845 0.00823385 0)
(-0.0406462 0.0126838 0)
(-0.0608186 0.0176361 0)
(-0.0836722 0.0215172 0)
(-0.105428 0.0221461 0)
(-0.121937 0.0180409 0)
(-0.130254 0.00949749 0)
(-0.129031 -0.00170334 0)
(-0.118496 -0.0135433 0)
(-0.0987397 -0.0241282 0)
(-0.0719493 -0.0303666 0)
(-0.0408005 -0.0292393 0)
(-0.0103962 -0.0194837 0)
(0.00988585 -0.00311457 0)
(0.0117249 0.00952123 0)
(0.00402854 0.00957682 0)
(-0.00136417 0.00148113 0)
(-0.00700484 0.00678758 0)
(-0.0172343 0.0118355 0)
(-0.0312233 0.0182082 0)
(-0.0502163 0.0266918 0)
(-0.0747306 0.0362417 0)
(-0.103068 0.0442055 0)
(-0.131409 0.0471831 0)
(-0.155459 0.0426985 0)
(-0.172196 0.030639 0)
(-0.180171 0.0129077 0)
(-0.179125 -0.00802759 0)
(-0.169417 -0.0298917 0)
(-0.150825 -0.0496266 0)
(-0.123572 -0.0630273 0)
(-0.0883399 -0.0647786 0)
(-0.0478412 -0.0500098 0)
(-0.00988987 -0.0196235 0)
(0.00739258 0.00990439 0)
(0.00374623 0.0161149 0)
(-0.00278488 0.00723024 0)
(-0.0123868 0.0179184 0)
(-0.0280416 0.0270487 0)
(-0.0480691 0.0383627 0)
(-0.0735709 0.0522693 0)
(-0.104125 0.0657905 0)
(-0.136628 0.0741828 0)
(-0.166609 0.0733312 0)
(-0.190508 0.0620192 0)
(-0.206729 0.0420384 0)
(-0.214983 0.0160771 0)
(-0.21573 -0.0136261 0)
(-0.209467 -0.0447923 0)
(-0.195638 -0.0743115 0)
(-0.172896 -0.0976878 0)
(-0.139538 -0.10797 0)
(-0.0948015 -0.0960823 0)
(-0.042119 -0.055606 0)
(-0.000220222 -0.00131136 0)
(0.00432142 0.0202607 0)
(-0.00400553 0.0160625 0)
(-0.0169988 0.0336488 0)
(-0.0370362 0.0473336 0)
(-0.0614708 0.0636877 0)
(-0.0910483 0.0821912 0)
(-0.12431 0.0976159 0)
(-0.157047 0.103819 0)
(-0.184742 0.0973517 0)
(-0.205083 0.0790821 0)
(-0.218082 0.0523005 0)
(-0.224745 0.0198373 0)
(-0.226372 -0.0164281 0)
(-0.223724 -0.0546523 0)
(-0.21624 -0.0925986 0)
(-0.202158 -0.1269 0)
(-0.177693 -0.150622 0)
(-0.13859 -0.15153 0)
(-0.0822355 -0.113465 0)
(-0.0159275 -0.0324373 0)
(0.00598317 0.0202298 0)
(-0.00468582 0.027202 0)
(-0.019811 0.0526662 0)
(-0.0423761 0.0708954 0)
(-0.0687297 0.0916205 0)
(-0.0990921 0.113108 0)
(-0.131047 0.128187 0)
(-0.159833 0.130384 0)
(-0.181628 0.117776 0)
(-0.195673 0.0932309 0)
(-0.203431 0.0610952 0)
(-0.206932 0.0244403 0)
(-0.208011 -0.0148726 0)
(-0.207623 -0.0557843 0)
(-0.205857 -0.0979007 0)
(-0.201625 -0.14023 0)
(-0.190241 -0.178203 0)
(-0.164759 -0.199436 0)
(-0.117945 -0.180502 0)
(-0.0477558 -0.0945046 0)
(0.00450694 0.0109699 0)
(-0.00457002 0.039309 0)
(-0.0200742 0.0730547 0)
(-0.0428068 0.095304 0)
(-0.0682239 0.119068 0)
(-0.0961216 0.141627 0)
(-0.123607 0.154547 0)
(-0.146109 0.151765 0)
(-0.160995 0.133052 0)
(-0.168907 0.102966 0)
(-0.172101 0.066711 0)
(-0.172721 0.027683 0)
(-0.17238 -0.0121785 0)
(-0.172139 -0.0523859 0)
(-0.173114 -0.0939147 0)
(-0.175577 -0.138182 0)
(-0.17598 -0.184964 0)
(-0.166437 -0.225969 0)
(-0.137181 -0.236544 0)
(-0.0824911 -0.172436 0)
(-0.00576532 -0.0126567 0)
(-0.00358698 0.0507562 0)
(-0.0175881 0.0926873 0)
(-0.0381873 0.118182 0)
(-0.0602667 0.14349 0)
(-0.0834809 0.165517 0)
(-0.105059 0.175265 0)
(-0.121204 0.167401 0)
(-0.130579 0.143199 0)
(-0.134748 0.108534 0)
(-0.136052 0.0691457 0)
(-0.136026 0.0284162 0)
(-0.135366 -0.0118914 0)
(-0.134608 -0.0511844 0)
(-0.135291 -0.0901105 0)
(-0.139262 -0.131199 0)
(-0.145735 -0.178733 0)
(-0.14818 -0.231792 0)
(-0.135558 -0.270551 0)
(-0.100116 -0.240616 0)
(-0.0244026 -0.0606371 0)
(-0.00189814 0.0599401 0)
(-0.0127754 0.109509 0)
(-0.0294512 0.137494 0)
(-0.0466243 0.163056 0)
(-0.0640419 0.183581 0)
(-0.0795053 0.1901 0)
(-0.0903059 0.178021 0)
(-0.0961834 0.149721 0)
(-0.0990075 0.111877 0)
(-0.100664 0.0703723 0)
(-0.101777 0.0282332 0)
(-0.102059 -0.0131176 0)
(-0.101453 -0.0526966 0)
(-0.101144 -0.0898538 0)
(-0.103802 -0.126401 0)
(-0.111448 -0.16926 0)
(-0.12065 -0.22583 0)
(-0.119781 -0.286419 0)
(-0.0994917 -0.29547 0)
(-0.0334265 -0.135129 0)
(0.000127844 0.0656254 0)
(-0.00646872 0.122007 0)
(-0.0180393 0.152048 0)
(-0.0294832 0.177099 0)
(-0.040668 0.195858 0)
(-0.0502219 0.199862 0)
(-0.0565905 0.185086 0)
(-0.0602199 0.154482 0)
(-0.0627371 0.11504 0)
(-0.0652806 0.0725298 0)
(-0.0677304 0.0295184 0)
(-0.069348 -0.0129709 0)
(-0.0698816 -0.0537102 0)
(-0.0697976 -0.0906811 0)
(-0.0714008 -0.12378 0)
(-0.0781331 -0.159969 0)
(-0.0906565 -0.213307 0)
(-0.0977268 -0.287527 0)
(-0.0907582 -0.333702 0)
(-0.0298094 -0.210527 0)
(0.00204091 0.0670073 0)
(0.00026814 0.129051 0)
(-0.00558996 0.160958 0)
(-0.0110495 0.185037 0)
(-0.015924 0.202106 0)
(-0.0196736 0.204651 0)
(-0.021852 0.188912 0)
(-0.0233448 0.157888 0)
(-0.0252474 0.118399 0)
(-0.027969 0.0758823 0)
(-0.0310327 0.0325911 0)
(-0.0338369 -0.0106309 0)
(-0.0362389 -0.0524401 0)
(-0.0380866 -0.0899826 0)
(-0.0407675 -0.12141 0)
(-0.0472463 -0.151752 0)
(-0.0617763 -0.198458 0)
(-0.0740085 -0.279514 0)
(-0.0791468 -0.357331 0)
(-0.0228195 -0.272815 0)
(0.00351016 0.0643223 0)
(0.00648706 0.130471 0)
(0.00637115 0.164207 0)
(0.00676896 0.187287 0)
(0.00812442 0.202932 0)
(0.0102197 0.205002 0)
(0.0125787 0.189718 0)
(0.0139731 0.159749 0)
(0.0137031 0.121362 0)
(0.0118547 0.0796195 0)
(0.00907191 0.0367331 0)
(0.00546711 -0.00638021 0)
(0.00106713 -0.0480548 0)
(-0.00385677 -0.0853825 0)
(-0.00991286 -0.116007 0)
(-0.0181861 -0.142191 0)
(-0.0354138 -0.181583 0)
(-0.0513263 -0.264667 0)
(-0.0681024 -0.369748 0)
(-0.0152447 -0.325163 0)
(0.00415757 0.0584471 0)
(0.0111026 0.126434 0)
(0.0162884 0.161515 0)
(0.0220712 0.183278 0)
(0.0292951 0.197363 0)
(0.0372078 0.1996 0)
(0.0446521 0.186108 0)
(0.0500863 0.158699 0)
(0.0527589 0.122664 0)
(0.0528191 0.0826605 0)
(0.0509069 0.0410892 0)
(0.0468074 -0.000969438 0)
(0.0407553 -0.0413259 0)
(0.0324269 -0.0773006 0)
(0.0215106 -0.106526 0)
(0.00932358 -0.129525 0)
(-0.0117503 -0.162691 0)
(-0.0294412 -0.244502 0)
(-0.0578747 -0.372448 0)
(-0.00746453 -0.367634 0)
(0.00382105 0.0507913 0)
(0.0132934 0.117982 0)
(0.0229749 0.154096 0)
(0.0334722 0.174547 0)
(0.0459682 0.186697 0)
(0.0594997 0.188926 0)
(0.0723568 0.177793 0)
(0.082672 0.153968 0)
(0.0893454 0.121443 0)
(0.0922098 0.0843286 0)
(0.0916696 0.045312 0)
(0.0875877 0.005915 0)
(0.0799282 -0.0315291 0)
(0.0683561 -0.064932 0)
(0.0527583 -0.0920616 0)
(0.0352376 -0.112531 0)
(0.00901775 -0.140395 0)
(-0.00803635 -0.220126 0)
(-0.0485979 -0.369475 0)
(0.000881809 -0.404236 0)
(0.00251108 0.0432006 0)
(0.0122835 0.10678 0)
(0.0246922 0.14169 0)
(0.0388104 0.159799 0)
(0.0557535 0.169406 0)
(0.0744694 0.171082 0)
(0.0927943 0.162329 0)
(0.108459 0.142864 0)
(0.119854 0.115243 0)
(0.126308 0.0827713 0)
(0.127779 0.0481566 0)
(0.124268 0.0132957 0)
(0.115278 -0.0197506 0)
(0.101073 -0.0491223 0)
(0.0810988 -0.0730136 0)
(0.058718 -0.0916265 0)
(0.0274997 -0.115551 0)
(0.0131138 -0.193442 0)
(-0.0398448 -0.364229 0)
(0.01079 -0.436964 0)
(0.000352831 0.0372161 0)
(0.00834876 0.0956106 0)
(0.0220433 0.128565 0)
(0.0387681 0.143887 0)
(0.0590457 0.150175 0)
(0.081758 0.150088 0)
(0.104631 0.142602 0)
(0.125108 0.127055 0)
(0.141093 0.104774 0)
(0.151429 0.0781041 0)
(0.15541 0.0493815 0)
(0.153252 0.0205621 0)
(0.143784 -0.00681409 0)
(0.128079 -0.0307139 0)
(0.104912 -0.0502248 0)
(0.0791857 -0.0667513 0)
(0.0444489 -0.0891001 0)
(0.033151 -0.167335 0)
(-0.030515 -0.359593 0)
(0.0245674 -0.465208 0)
(-0.00298568 0.0383799 0)
(-0.00178789 0.0864566 0)
(0.00981396 0.109537 0)
(0.0293201 0.119989 0)
(0.0533666 0.123365 0)
(0.0800497 0.122023 0)
(0.106984 0.115825 0)
(0.131705 0.104225 0)
(0.15185 0.0878582 0)
(0.165978 0.0681584 0)
(0.172787 0.0469795 0)
(0.172421 0.0258133 0)
(0.163601 0.00602805 0)
(0.148574 -0.0112738 0)
(0.124206 -0.0255916 0)
(0.0983916 -0.0401989 0)
(0.0627577 -0.0635577 0)
(0.0530577 -0.143861 0)
(-0.0144692 -0.350377 0)
(0.0471479 -0.479068 0)
(-0.00686019 0.029532 0)
(-0.00804369 0.0868502 0)
(-0.000335542 0.103552 0)
(0.019102 0.104324 0)
(0.045015 0.101295 0)
(0.0737753 0.0968901 0)
(0.102923 0.0907548 0)
(0.129906 0.0819115 0)
(0.152637 0.0707009 0)
(0.169765 0.0575069 0)
(0.179341 0.0438736 0)
(0.18271 0.0304011 0)
(0.176783 0.0186139 0)
(0.16698 0.00798447 0)
(0.146229 -0.00115557 0)
(0.128718 -0.0144132 0)
(0.0949468 -0.0413559 0)
(0.0855615 -0.125833 0)
(0.026274 -0.320499 0)
(0.0882096 -0.451567 0)
(-0.100998 0.0904038 0)
(-0.0749389 0.0734661 0)
(-0.0549565 0.0640598 0)
(-0.0172758 0.0610362 0)
(0.0207258 0.0583831 0)
(0.0592597 0.0553145 0)
(0.0958635 0.0517812 0)
(0.131156 0.047037 0)
(0.160803 0.0417022 0)
(0.18851 0.0354039 0)
(0.206667 0.0293642 0)
(0.224467 0.0233355 0)
(0.229021 0.0186033 0)
(0.237519 0.0142353 0)
(0.227359 0.0100705 0)
(0.228424 0.000956429 0)
(0.197242 -0.0234993 0)
(0.197495 -0.0879862 0)
(0.142836 -0.228466 0)
(0.169121 -0.340881 0)
(0.13315 0.10667 0)
(0.165321 0.0818513 0)
(0.222617 0.0600529 0)
(0.279214 0.046787 0)
(0.325937 0.0389355 0)
(0.369845 0.0333503 0)
(0.405927 0.0294691 0)
(0.443841 0.0258841 0)
(0.47201 0.0233177 0)
(0.504561 0.0203319 0)
(0.523265 0.0184353 0)
(0.550024 0.0156937 0)
(0.557923 0.0145652 0)
(0.579505 0.01204 0)
(0.574525 0.0115813 0)
(0.588431 0.00745702 0)
(0.557888 0.00278074 0)
(0.544479 -0.0161056 0)
(0.438457 -0.0490982 0)
(0.339043 -0.10076 0)
)
;

boundaryField
{
    movingWall
    {
        type            fixedValue;
        value           uniform (1 0 0);
    }
    fixedWalls
    {
        type            noSlip;
    }
    frontAndBack
    {
        type            empty;
    }
}


// ************************************************************************* //
