/*--------------------------------*- C++ -*----------------------------------*\
| =========                 |                                                 |
| \\      /  F ield         | OpenFOAM: The Open Source CFD Toolbox           |
|  \\    /   O peration     | Version:  2212                                  |
|   \\  /    A nd           | Website:  www.openfoam.com                      |
|    \\/     M anipulation  |                                                 |
\*---------------------------------------------------------------------------*/
FoamFile
{
    version     2.0;
    format      ascii;
    arch        "LSB;label=32;scalar=64";
    class       volScalarField;
    location    "4.03";
    object      p;
}
// * * * * * * * * * * * * * * * * * * * * * * * * * * * * * * * * * * * * * //

dimensions      [0 2 -2 0 0 0 0];

internalField   nonuniform List<scalar> 
400
(
-1.12662e-08
-0.000150234
-0.000530247
-0.00106223
-0.00171672
-0.00246994
-0.00315425
-0.00356288
-0.00352937
-0.00290041
-0.001523
0.000630994
0.00324927
0.00551369
0.00655158
0.00597436
0.00408601
0.0022517
0.00121571
0.00114345
0.000116032
-5.69526e-05
-0.000372166
-0.00075616
-0.00123255
-0.00187008
-0.00267777
-0.00350331
-0.00403122
-0.00388869
-0.00280488
-0.000797345
0.00170452
0.00397524
0.00515572
0.00480467
0.00319838
0.00148256
0.000702402
0.000787987
0.000530564
0.000263171
-7.49422e-05
-0.000552709
-0.00133159
-0.00254867
-0.00416402
-0.00590323
-0.00730205
-0.00783639
-0.00716429
-0.00537667
-0.00282263
-0.000134969
0.001856
0.00250964
0.00181334
0.000617602
-0.000279016
-0.000282015
0.00113472
0.000729124
0.000188266
-0.000764612
-0.00241606
-0.00486533
-0.00787736
-0.0109577
-0.0135052
-0.0149611
-0.0149927
-0.0136412
-0.0111196
-0.0078807
-0.00462245
-0.00208877
-0.000751603
-0.000587858
-0.00116905
-0.00180049
0.00154751
0.000947741
-3.04482e-05
-0.00189865
-0.00492983
-0.00903668
-0.0136982
-0.0181973
-0.0218813
-0.0242867
-0.0251552
-0.024367
-0.0220432
-0.0184678
-0.0140746
-0.00946724
-0.00543844
-0.00282055
-0.00207749
-0.00389056
0.00124609
0.000412614
-0.0011971
-0.00424589
-0.00886371
-0.0146422
-0.0207368
-0.0262924
-0.0307003
-0.0336444
-0.0349975
-0.0346602
-0.0327117
-0.0292945
-0.0245446
-0.0186777
-0.0122905
-0.0067908
-0.00427295
-0.00638222
-9.18367e-05
-0.00117085
-0.0034741
-0.00768738
-0.0137106
-0.0207689
-0.0277718
-0.0338382
-0.038475
-0.0415226
-0.0429896
-0.0428974
-0.0413103
-0.0382926
-0.0338166
-0.0277609
-0.02024
-0.0124922
-0.00770325
-0.00762009
-0.00247143
-0.00373847
-0.00663197
-0.0117408
-0.018731
-0.0265287
-0.0339135
-0.0400654
-0.0446356
-0.0475906
-0.0490222
-0.0490271
-0.0476829
-0.0450325
-0.041021
-0.035408
-0.0279277
-0.0190878
-0.0116375
-0.00785964
-0.00552153
-0.00687176
-0.0101471
-0.0157836
-0.0232663
-0.0313372
-0.0387454
-0.0447668
-0.0491725
-0.052006
-0.0533932
-0.0534431
-0.05223
-0.0498078
-0.0461785
-0.0411743
-0.0343704
-0.0255823
-0.0164647
-0.00983707
-0.00867701
-0.0100006
-0.0134331
-0.0192462
-0.0268258
-0.0348545
-0.042113
-0.0479564
-0.0522233
-0.0549828
-0.0563565
-0.0564345
-0.0552804
-0.0529614
-0.0495504
-0.0450239
-0.0390541
-0.0310853
-0.0220057
-0.0141101
-0.0114145
-0.0126391
-0.0160188
-0.0217191
-0.0291021
-0.0369047
-0.0439677
-0.049677
-0.0538791
-0.0566248
-0.0580124
-0.0581092
-0.0569664
-0.054657
-0.051314
-0.0470555
-0.0418029
-0.0348999
-0.0268322
-0.0188865
-0.0134414
-0.0144817
-0.0176387
-0.0229665
-0.029914
-0.0373656
-0.0442424
-0.0499071
-0.0541419
-0.056945
-0.0583763
-0.058484
-0.0573106
-0.0549305
-0.0515281
-0.0473346
-0.042579
-0.036575
-0.0296574
-0.0221001
-0.0147247
-0.0154307
-0.0181411
-0.0228769
-0.0292008
-0.0362109
-0.0429207
-0.0486301
-0.0530006
-0.0559394
-0.0574528
-0.0575666
-0.0563187
-0.0538052
-0.050236
-0.0459046
-0.0413939
-0.035874
-0.0298912
-0.0226072
-0.0153597
-0.0155993
-0.0175947
-0.0214578
-0.026958
-0.0334357
-0.0399851
-0.0458133
-0.0504248
-0.0535956
-0.0552559
-0.055403
-0.0540569
-0.0513408
-0.0475079
-0.0429373
-0.038272
-0.0328241
-0.0278464
-0.0200756
-0.0154759
-0.0151978
-0.0161994
-0.0188689
-0.0233149
-0.0291486
-0.0355263
-0.0415341
-0.0464887
-0.0499992
-0.0518903
-0.0521059
-0.0506854
-0.0477214
-0.0435363
-0.0385621
-0.0334784
-0.0279076
-0.0241074
-0.0143187
-0.0151929
-0.014475
-0.0141737
-0.0152931
-0.0184639
-0.0235481
-0.0297368
-0.0359692
-0.0413577
-0.045321
-0.0475595
-0.0479477
-0.0465108
-0.0433179
-0.0387304
-0.0332046
-0.0275162
-0.0216396
-0.0181318
-0.00393466
-0.0145981
-0.0135692
-0.0116747
-0.0110428
-0.0128616
-0.0171858
-0.0232036
-0.0296935
-0.035582
-0.0400984
-0.0428129
-0.0435041
-0.0421668
-0.0388349
-0.0338319
-0.0275478
-0.0207399
-0.0134854
-0.00708621
0.0157849
-0.0145501
-0.0126376
-0.00866996
-0.00628779
-0.00694006
-0.0106941
-0.0166414
-0.023421
-0.0298446
-0.0349801
-0.0382876
-0.0394244
-0.0383384
-0.0350394
-0.0296719
-0.0222717
-0.0130896
-0.00108187
0.0162137
0.0566609
-0.0117929
-0.0118469
-0.00580916
-0.00190892
-0.00188981
-0.00546003
-0.0115125
-0.0186114
-0.0255343
-0.0312367
-0.0351478
-0.0368418
-0.036223
-0.0330181
-0.0270752
-0.0176168
-0.00345493
0.0199991
0.0601529
0.129369
-0.0295043
-0.0106693
-0.000727768
0.00291002
0.00228277
-0.00165627
-0.00798366
-0.0153974
-0.0226811
-0.0287653
-0.0330541
-0.0350984
-0.034764
-0.0316356
-0.0250784
-0.0129193
0.00913662
0.0507164
0.122384
0.225668
)
;

boundaryField
{
    movingWall
    {
        type            zeroGradient;
    }
    fixedWalls
    {
        type            zeroGradient;
    }
    frontAndBack
    {
        type            empty;
    }
}


// ************************************************************************* //
