/*--------------------------------*- C++ -*----------------------------------*\
| =========                 |                                                 |
| \\      /  F ield         | OpenFOAM: The Open Source CFD Toolbox           |
|  \\    /   O peration     | Version:  2212                                  |
|   \\  /    A nd           | Website:  www.openfoam.com                      |
|    \\/     M anipulation  |                                                 |
\*---------------------------------------------------------------------------*/
FoamFile
{
    version     2.0;
    format      ascii;
    arch        "LSB;label=32;scalar=64";
    class       surfaceScalarField;
    location    "0.165";
    object      phi;
}
// * * * * * * * * * * * * * * * * * * * * * * * * * * * * * * * * * * * * * //

dimensions      [0 3 -1 0 0 0 0];

oriented        oriented;

internalField   nonuniform List<scalar> 
760
(
-2.6811e-08
2.68111e-08
-7.74911e-08
5.06801e-08
-1.32031e-07
5.454e-08
-1.84602e-07
5.25711e-08
-2.33455e-07
4.88527e-08
-2.77451e-07
4.39958e-08
-3.15497e-07
3.8046e-08
-3.46496e-07
3.09998e-08
-3.69363e-07
2.28668e-08
-3.83052e-07
1.36889e-08
-3.86615e-07
3.56275e-09
-3.79178e-07
-7.43717e-09
-3.60179e-07
-1.89986e-08
-3.29376e-07
-3.08024e-08
-2.8699e-07
-4.23859e-08
-2.33829e-07
-5.31617e-08
-1.71468e-07
-6.23609e-08
-1.03023e-07
-6.84444e-08
-3.71419e-08
-6.58815e-08
-3.71419e-08
-5.26224e-08
7.94335e-08
-1.37825e-07
1.35883e-07
-2.27634e-07
1.44348e-07
-3.13868e-07
1.38805e-07
-3.93483e-07
1.28468e-07
-4.64464e-07
1.14977e-07
-5.25015e-07
9.85965e-08
-5.73439e-07
7.9424e-08
-6.08141e-07
5.75693e-08
-6.27652e-07
3.31995e-08
-6.30764e-07
6.67456e-09
-6.16294e-07
-2.19068e-08
-5.83645e-07
-5.16472e-08
-5.3267e-07
-8.17775e-08
-4.63894e-07
-1.11162e-07
-3.78708e-07
-1.38347e-07
-2.79683e-07
-1.61386e-07
-1.71672e-07
-1.76455e-07
-6.65555e-08
-1.70998e-07
-1.03697e-07
-6.02832e-08
1.39717e-07
-1.56423e-07
2.32023e-07
-2.57151e-07
2.45076e-07
-3.5365e-07
2.35304e-07
-4.42655e-07
2.17473e-07
-5.21969e-07
1.94291e-07
-5.89635e-07
1.66263e-07
-6.4382e-07
1.33609e-07
-6.82802e-07
9.65513e-08
-7.04992e-07
5.53898e-08
-7.08996e-07
1.06785e-08
-6.93523e-07
-3.73799e-08
-6.57781e-07
-8.73891e-08
-6.01455e-07
-1.38103e-07
-5.2495e-07
-1.87667e-07
-4.29638e-07
-2.33658e-07
-3.1826e-07
-2.72764e-07
-1.96151e-07
-2.98564e-07
-7.6537e-08
-2.90613e-07
-1.80234e-07
-6.41115e-08
2.03828e-07
-1.66768e-07
3.3468e-07
-2.74238e-07
3.52545e-07
-3.77187e-07
3.38253e-07
-4.72286e-07
3.12572e-07
-5.57308e-07
2.79313e-07
-6.30261e-07
2.39215e-07
-6.89258e-07
1.92607e-07
-7.32497e-07
1.3979e-07
-7.58244e-07
8.1137e-08
-7.64946e-07
1.73799e-08
-7.50952e-07
-5.1374e-08
-7.15131e-07
-1.2321e-07
-6.56727e-07
-1.96507e-07
-5.75713e-07
-2.68681e-07
-4.73145e-07
-3.36226e-07
-3.51715e-07
-3.94194e-07
-2.17246e-07
-4.33034e-07
-8.47269e-08
-4.23131e-07
-2.64961e-07
-6.84331e-08
2.72261e-07
-1.78431e-07
4.44677e-07
-2.93637e-07
4.67752e-07
-4.04109e-07
4.48724e-07
-5.06426e-07
4.14889e-07
-5.9835e-07
3.71237e-07
-6.77881e-07
3.18747e-07
-7.43106e-07
2.57832e-07
-7.92143e-07
1.88827e-07
-8.23112e-07
1.12106e-07
-8.34107e-07
2.83749e-08
-8.23189e-07
-6.2292e-08
-7.88546e-07
-1.57853e-07
-7.28726e-07
-2.56327e-07
-6.42943e-07
-3.54465e-07
-5.31619e-07
-4.47551e-07
-3.97215e-07
-5.28598e-07
-2.46209e-07
-5.8404e-07
-9.61613e-08
-5.73179e-07
-3.61123e-07
-7.40712e-08
3.46332e-07
-1.93446e-07
5.64053e-07
-3.18504e-07
5.9281e-07
-4.38545e-07
5.68765e-07
-5.50038e-07
5.26382e-07
-6.50751e-07
4.7195e-07
-7.38711e-07
4.06707e-07
-8.12015e-07
3.31136e-07
-8.68733e-07
2.45545e-07
-9.06816e-07
1.50189e-07
-9.24103e-07
4.5662e-08
-9.18043e-07
-6.83521e-08
-8.86047e-07
-1.89849e-07
-8.25596e-07
-3.16778e-07
-7.34673e-07
-4.45387e-07
-6.12539e-07
-5.69685e-07
-4.61021e-07
-6.80115e-07
-2.8731e-07
-7.57751e-07
-1.12602e-07
-7.47888e-07
-4.73724e-07
-8.12146e-08
4.27547e-07
-2.12344e-07
6.95182e-07
-3.49649e-07
7.30115e-07
-4.81502e-07
7.00617e-07
-6.04257e-07
6.49138e-07
-7.15732e-07
5.83424e-07
-8.14047e-07
5.05022e-07
-8.97388e-07
4.14477e-07
-9.63856e-07
3.12013e-07
-1.01132e-06
1.97658e-07
-1.03723e-06
7.15719e-08
-1.03862e-06
-6.69642e-08
-1.01169e-06
-2.16778e-07
-9.52469e-07
-3.76003e-07
-8.57013e-07
-5.40843e-07
-7.22523e-07
-7.04176e-07
-5.49334e-07
-8.53304e-07
-3.45098e-07
-9.61987e-07
-1.36021e-07
-9.56965e-07
-6.09746e-07
-9.00166e-08
5.17564e-07
-2.35513e-07
8.40679e-07
-3.87623e-07
8.82224e-07
-5.3359e-07
8.46585e-07
-6.69677e-07
7.85224e-07
-7.93825e-07
7.07572e-07
-9.04359e-07
6.15556e-07
-9.99686e-07
5.09805e-07
-1.07808e-06
3.90411e-07
-1.13745e-06
2.57023e-07
-1.17513e-06
1.0925e-07
-1.1875e-06
-5.45874e-08
-1.1695e-06
-2.3478e-07
-1.11518e-06
-4.30322e-07
-1.01772e-06
-6.38308e-07
-8.70753e-07
-8.5114e-07
-6.71418e-07
-1.05264e-06
-4.26827e-07
-1.20658e-06
-1.69794e-07
-1.214e-06
-7.79539e-07
-1.00716e-07
6.1828e-07
-2.63505e-07
1.00347e-06
-4.33154e-07
1.05187e-06
-5.95562e-07
1.00899e-06
-7.46949e-07
9.36611e-07
-8.85509e-07
8.46132e-07
-1.00994e-06
7.39985e-07
-1.11907e-06
6.18933e-07
-1.21157e-06
4.82918e-07
-1.28567e-06
3.31121e-07
-1.33864e-06
1.62216e-07
-1.36694e-06
-2.62874e-08
-1.3637e-06
-2.38015e-07
-1.32077e-06
-4.73254e-07
-1.22718e-06
-7.31897e-07
-1.07071e-06
-1.00762e-06
-8.42028e-07
-1.28132e-06
-5.45018e-07
-1.50359e-06
-2.20286e-07
-1.53873e-06
-9.99825e-07
-1.13713e-07
7.31993e-07
-2.97183e-07
1.18694e-06
-4.87335e-07
1.24203e-06
-6.68489e-07
1.19015e-06
-8.36934e-07
1.10506e-06
-9.91313e-07
1.00051e-06
-1.13092e-06
8.79597e-07
-1.2553e-06
7.43305e-07
-1.36384e-06
5.91462e-07
-1.45544e-06
4.22717e-07
-1.52784e-06
2.34616e-07
-1.57833e-06
2.42028e-08
-1.5981e-06
-2.1824e-07
-1.57712e-06
-4.94233e-07
-1.49895e-06
-8.10074e-07
-1.34217e-06
-1.16439e-06
-1.0853e-06
-1.53819e-06
-7.22485e-07
-1.8664e-06
-3.00651e-07
-1.96056e-06
-1.30048e-06
-1.29689e-07
8.61682e-07
-3.37942e-07
1.39519e-06
-5.51856e-07
1.45594e-06
-7.53955e-07
1.39224e-06
-9.40836e-07
1.29194e-06
-1.11188e-06
1.17156e-06
-1.26732e-06
1.03503e-06
-1.4077e-06
8.83685e-07
-1.5336e-06
7.1736e-07
-1.6452e-06
5.34321e-07
-1.74165e-06
3.31065e-07
-1.82012e-06
1.02673e-07
-1.87456e-06
-1.63798e-07
-1.89173e-06
-4.77067e-07
-1.84958e-06
-8.52224e-07
-1.71381e-06
-1.30016e-06
-1.44152e-06
-1.81048e-06
-1.00304e-06
-2.30488e-06
-4.40616e-07
-2.52299e-06
-1.74109e-06
-1.49826e-07
1.01151e-06
-3.88067e-07
1.63343e-06
-6.29355e-07
1.69723e-06
-8.5433e-07
1.61722e-06
-1.06038e-06
1.49799e-06
-1.24809e-06
1.35927e-06
-1.41898e-06
1.20592e-06
-1.57501e-06
1.03971e-06
-1.71834e-06
8.60692e-07
-1.85106e-06
6.6704e-07
-1.97471e-06
4.54711e-07
-2.08876e-06
2.16729e-07
-2.19103e-06
-6.15318e-08
-2.2688e-06
-3.99294e-07
-2.29671e-06
-8.24311e-07
-2.22545e-06
-1.37143e-06
-1.97808e-06
-2.05785e-06
-1.47324e-06
-2.80971e-06
-7.10425e-07
-3.2858e-06
-2.45152e-06
-1.76217e-07
1.18773e-06
-4.51365e-07
1.90858e-06
-7.23987e-07
1.96985e-06
-9.73154e-07
1.86639e-06
-1.19805e-06
1.72288e-06
-1.40118e-06
1.56241e-06
-1.58579e-06
1.39053e-06
-1.75552e-06
1.20945e-06
-1.91448e-06
1.01965e-06
-2.06725e-06
8.19815e-07
-2.21878e-06
6.06242e-07
-2.37363e-06
3.71576e-07
-2.53691e-06
1.01745e-07
-2.70289e-06
-2.33316e-07
-2.85195e-06
-6.75249e-07
-2.92515e-06
-1.29823e-06
-2.80035e-06
-2.18265e-06
-2.29534e-06
-3.31472e-06
-1.26408e-06
-4.31706e-06
-3.7156e-06
-2.1268e-07
1.4004e-06
-5.34297e-07
2.2302e-06
-8.42294e-07
2.27785e-06
-1.11561e-06
2.1397e-06
-1.35731e-06
1.96458e-06
-1.57293e-06
1.77802e-06
-1.76778e-06
1.58538e-06
-1.94727e-06
1.38894e-06
-2.11748e-06
1.18985e-06
-2.28574e-06
9.88081e-07
-2.46147e-06
7.81967e-07
-2.65667e-06
5.66777e-07
-2.88584e-06
3.30913e-07
-3.16676e-06
4.76019e-08
-3.50036e-06
-3.41645e-07
-3.84029e-06
-9.58302e-07
-4.01657e-06
-2.00636e-06
-3.66793e-06
-3.66336e-06
-2.30294e-06
-5.68205e-06
-6.01854e-06
-2.66236e-07
1.66664e-06
-6.4821e-07
2.61217e-06
-9.94838e-07
2.62447e-06
-1.28905e-06
2.43391e-06
-1.54267e-06
2.2182e-06
-1.76561e-06
2.00096e-06
-1.9652e-06
1.78497e-06
-2.14813e-06
1.57188e-06
-2.32187e-06
1.36359e-06
-2.49592e-06
1.16213e-06
-2.68362e-06
9.69666e-07
-2.90517e-06
7.88327e-07
-3.19152e-06
6.17261e-07
-3.58875e-06
4.44831e-07
-4.14814e-06
2.17746e-07
-4.86282e-06
-2.4362e-07
-5.50627e-06
-1.36292e-06
-5.42511e-06
-3.74453e-06
-3.61285e-06
-7.49432e-06
-9.63139e-06
-3.5332e-07
2.01996e-06
-8.12831e-07
3.07168e-06
-1.19473e-06
3.00637e-06
-1.50142e-06
2.7406e-06
-1.75839e-06
2.47517e-06
-1.98055e-06
2.22312e-06
-2.17631e-06
1.98073e-06
-2.35241e-06
1.74798e-06
-2.51657e-06
1.52775e-06
-2.67865e-06
1.32422e-06
-2.8535e-06
1.14451e-06
-3.06504e-06
9.99866e-07
-3.35779e-06
9.10011e-07
-3.80669e-06
8.93727e-07
-4.51301e-06
9.24065e-07
-5.50549e-06
7.48867e-07
-6.45609e-06
-4.12324e-07
-6.43738e-06
-3.76323e-06
-4.19734e-06
-9.73436e-06
-1.38287e-05
-4.96828e-07
2.51679e-06
-1.08453e-06
3.65938e-06
-1.48379e-06
3.40564e-06
-1.76856e-06
3.02536e-06
-2.00423e-06
2.71084e-06
-2.20453e-06
2.42342e-06
-2.37232e-06
2.14853e-06
-2.51246e-06
1.88812e-06
-2.63313e-06
1.64842e-06
-2.74269e-06
1.43378e-06
-2.85339e-06
1.25522e-06
-2.9815e-06
1.12797e-06
-3.16489e-06
1.0934e-06
-3.47112e-06
1.19996e-06
-4.00308e-06
1.45602e-06
-4.79998e-06
1.54577e-06
-5.46206e-06
2.49755e-07
-5.28621e-06
-3.93909e-06
-3.47334e-06
-1.15472e-05
-1.73021e-05
-4.92988e-07
3.00978e-06
-1.30903e-06
4.47543e-06
-1.79512e-06
3.89172e-06
-2.06137e-06
3.29161e-06
-2.19397e-06
2.84344e-06
-2.24499e-06
2.47444e-06
-2.23951e-06
2.14305e-06
-2.19786e-06
1.84646e-06
-2.13889e-06
1.58945e-06
-2.0688e-06
1.36368e-06
-1.99658e-06
1.183e-06
-1.91554e-06
1.04694e-06
-1.82966e-06
1.00751e-06
-1.73625e-06
1.10655e-06
-1.66011e-06
1.37988e-06
-1.6029e-06
1.48856e-06
-1.69364e-06
3.40503e-07
-1.72818e-06
-3.90455e-06
-1.09321e-06
-1.21822e-05
-1.83953e-05
-3.74942e-06
6.75919e-06
-3.44516e-06
4.17117e-06
-2.35445e-06
2.80102e-06
-1.34924e-06
2.28639e-06
-4.54935e-07
1.94914e-06
3.63594e-07
1.65591e-06
1.10549e-06
1.40115e-06
1.77253e-06
1.17942e-06
2.35912e-06
1.00287e-06
2.87918e-06
8.43618e-07
3.33508e-06
7.27099e-07
3.74842e-06
6.33599e-07
4.14421e-06
6.11723e-07
4.5753e-06
6.75469e-07
5.18706e-06
7.68122e-07
6.04677e-06
6.2885e-07
6.47931e-06
-9.20411e-08
6.22979e-06
-3.65503e-06
3.66497e-06
-9.61737e-06
-1.47303e-05
6.75919e-06
1.09304e-05
1.37314e-05
1.60178e-05
1.79669e-05
1.96228e-05
2.1024e-05
2.22034e-05
2.32063e-05
2.40499e-05
2.4777e-05
2.54106e-05
2.60223e-05
2.66978e-05
2.74659e-05
2.80948e-05
2.80027e-05
2.43477e-05
1.47303e-05
)
;

boundaryField
{
    movingWall
    {
        type            calculated;
        value           uniform 0;
    }
    fixedWalls
    {
        type            calculated;
        value           uniform 0;
    }
    frontAndBack
    {
        type            empty;
        value           nonuniform List<scalar> 0();
    }
}


// ************************************************************************* //
