/*--------------------------------*- C++ -*----------------------------------*\
| =========                 |                                                 |
| \\      /  F ield         | OpenFOAM: The Open Source CFD Toolbox           |
|  \\    /   O peration     | Version:  2212                                  |
|   \\  /    A nd           | Website:  www.openfoam.com                      |
|    \\/     M anipulation  |                                                 |
\*---------------------------------------------------------------------------*/
FoamFile
{
    version     2.0;
    format      ascii;
    arch        "LSB;label=32;scalar=64";
    class       volScalarField;
    location    "0.715";
    object      p;
}
// * * * * * * * * * * * * * * * * * * * * * * * * * * * * * * * * * * * * * //

dimensions      [0 2 -2 0 0 0 0];

internalField   nonuniform List<scalar> 
400
(
4.01291e-06
-0.00582317
-0.0129611
-0.0184135
-0.0204311
-0.0182375
-0.011773
-0.00148284
0.0118382
0.0271501
0.0432455
0.0588243
0.0725801
0.08331
0.0900543
0.0922684
0.0900272
0.0842452
0.076882
0.0710684
0.00578291
-0.000216312
-0.00580232
-0.00954115
-0.0105977
-0.00843159
-0.00296889
0.00547513
0.0163039
0.0287127
0.0417508
0.0543871
0.0655877
0.0744114
0.0801218
0.0823172
0.0810787
0.0770562
0.0712754
0.0653191
0.0133372
0.00503553
-0.000993679
-0.00442169
-0.00527168
-0.00326281
0.0016034
0.00902861
0.0185031
0.0293503
0.0407664
0.0518707
0.0617697
0.0696377
0.0748084
0.0768795
0.075843
0.0720872
0.0658067
0.0575366
0.0201415
0.00869779
0.00122752
-0.00266707
-0.00372085
-0.0018842
0.00273231
0.00978558
0.0187814
0.0290961
0.039993
0.0506551
0.060234
0.0679171
0.0730044
0.0750028
0.0737671
0.0694573
0.0616041
0.0501035
0.024504
0.00977494
0.000591468
-0.00398537
-0.00530088
-0.00350617
0.00117577
0.00833554
0.017463
0.0279501
0.039086
0.050071
0.0600499
0.0681661
0.0736275
0.0757989
0.0743701
0.0692909
0.0595266
0.0445381
0.0251798
0.00715182
-0.00380032
-0.0090556
-0.0105107
-0.00849869
-0.0033557
0.00443042
0.0143143
0.02568
0.0378148
0.0499044
0.0610492
0.0703042
0.0767357
0.0795179
0.07814
0.0723346
0.0605403
0.041891
0.0210953
-0.000260653
-0.0129329
-0.0187077
-0.0200283
-0.0174125
-0.0113171
-0.0023186
0.00899143
0.0219772
0.0359107
0.0499454
0.0631133
0.0743464
0.0825229
0.0865705
0.0857217
0.0794481
0.0656214
0.0430727
0.0111446
-0.0136166
-0.0278735
-0.0338527
-0.0346019
-0.030856
-0.0232114
-0.0123439
0.00110595
0.0164849
0.0330536
0.0499347
0.0660845
0.080291
0.0912018
0.0974311
0.0978713
0.0916371
0.0758973
0.0491175
-0.0059655
-0.0342649
-0.0498686
-0.0555471
-0.0550886
-0.049513
-0.039592
-0.0261119
-0.00975584
0.00882413
0.0289021
0.0495946
0.0697986
0.0881557
0.103049
0.112702
0.115552
0.110193
0.0928354
0.0614125
-0.0318556
-0.0638746
-0.0804155
-0.0850058
-0.0824187
-0.0740768
-0.0609794
-0.0440351
-0.0239501
-0.0013356
0.0231468
0.0486621
0.0740967
0.0979734
0.118397
0.133127
0.13999
0.136819
0.118442
0.081935
-0.0686658
-0.104602
-0.121343
-0.123589
-0.117514
-0.105125
-0.0877168
-0.066324
-0.0416355
-0.0141542
0.0156069
0.0469545
0.078857
0.109795
0.137625
0.159587
0.172728
0.173779
0.155522
0.113572
-0.119401
-0.159355
-0.174913
-0.172755
-0.161146
-0.142927
-0.119757
-0.0927755
-0.0625758
-0.029446
0.00637469
0.044475
0.0840566
0.123704
0.161138
0.193087
0.21567
0.224078
0.208052
0.160634
-0.188627
-0.23224
-0.243937
-0.233946
-0.213693
-0.187153
-0.156371
-0.122499
-0.0858962
-0.0464704
-0.00401267
0.0415406
0.0898439
0.139831
0.189321
0.234691
0.271076
0.291666
0.281744
0.229778
-0.283973
-0.329303
-0.33183
-0.308278
-0.274706
-0.236438
-0.195762
-0.153608
-0.109838
-0.0637431
-0.0144358
0.0388655
0.0965564
0.158279
0.222376
0.28529
0.341399
0.381577
0.384916
0.331836
-0.419316
-0.459669
-0.442348
-0.39579
-0.342126
-0.287737
-0.234613
-0.182927
-0.131607
-0.0789824
-0.0232115
0.0374779
0.104556
0.17884
0.259864
0.344973
0.428619
0.499702
0.529677
0.485394
-0.620529
-0.636741
-0.578674
-0.49419
-0.411237
-0.335655
-0.267777
-0.205974
-0.147533
-0.0893799
-0.028423
0.0383514
0.11381
0.200475
0.299978
0.412028
0.533032
0.651778
0.732775
0.722399
-0.935921
-0.878512
-0.741738
-0.597945
-0.474389
-0.372656
-0.288865
-0.217759
-0.15395
-0.0924603
-0.0287138
0.0416991
0.123267
0.220722
0.338929
0.482158
0.652
0.841345
1.01527
1.09751
-1.47642
-1.20663
-0.920499
-0.691384
-0.517301
-0.38754
-0.290057
-0.213333
-0.14812
-0.0872117
-0.0245739
0.0454611
0.128941
0.233075
0.367107
0.542682
0.771297
1.05932
1.40329
1.73014
-2.53964
-1.63054
-1.04443
-0.710955
-0.495747
-0.352089
-0.254527
-0.183579
-0.126165
-0.0735914
-0.0192653
0.0427906
0.119216
0.218786
0.354816
0.547987
0.826396
1.23658
1.91168
2.9242
-4.36666
-2.04463
-0.973538
-0.563177
-0.357842
-0.240143
-0.170115
-0.123779
-0.0874775
-0.0535066
-0.0166508
0.0276643
0.084611
0.161733
0.272415
0.442103
0.718222
1.22571
2.41104
4.84853
)
;

boundaryField
{
    movingWall
    {
        type            zeroGradient;
    }
    fixedWalls
    {
        type            zeroGradient;
    }
    frontAndBack
    {
        type            empty;
    }
}


// ************************************************************************* //
