/*--------------------------------*- C++ -*----------------------------------*\
| =========                 |                                                 |
| \\      /  F ield         | OpenFOAM: The Open Source CFD Toolbox           |
|  \\    /   O peration     | Version:  2212                                  |
|   \\  /    A nd           | Website:  www.openfoam.com                      |
|    \\/     M anipulation  |                                                 |
\*---------------------------------------------------------------------------*/
FoamFile
{
    version     2.0;
    format      ascii;
    arch        "LSB;label=32;scalar=64";
    class       volScalarField;
    location    "4.91";
    object      p;
}
// * * * * * * * * * * * * * * * * * * * * * * * * * * * * * * * * * * * * * //

dimensions      [0 2 -2 0 0 0 0];

internalField   nonuniform List<scalar> 
400
(
1.27572e-07
-0.000150349
-0.000532813
-0.00106804
-0.00172646
-0.0024849
-0.00317349
-0.0035846
-0.00355195
-0.00292164
-0.00153917
0.000623711
0.00325018
0.00551616
0.00654475
0.00594863
0.00404111
0.00219572
0.00115761
0.00108721
0.000116341
-5.74648e-05
-0.000374961
-0.000760896
-0.00123949
-0.00188121
-0.00269555
-0.00352858
-0.00406196
-0.00392014
-0.00283127
-0.000814797
0.00169549
0.00396821
0.00514038
0.00477239
0.0031465
0.00142288
0.000641669
0.000730447
0.000534662
0.000264697
-7.60433e-05
-0.000556741
-0.00134128
-0.00256871
-0.00419857
-0.00595345
-0.00736441
-0.00790293
-0.00722617
-0.00542946
-0.00286491
-0.000170408
0.00181945
0.00246412
0.00175532
0.000553194
-0.000344486
-0.000343895
0.00114621
0.000737334
0.000190974
-0.000770837
-0.00243812
-0.00491072
-0.00795033
-0.0110575
-0.0136256
-0.0150916
-0.0151218
-0.0137609
-0.0112242
-0.00796936
-0.00469897
-0.00215878
-0.000819203
-0.000654498
-0.0012362
-0.00186672
0.00157071
0.000964627
-2.54027e-05
-0.00191459
-0.00497781
-0.00912521
-0.0138295
-0.0183671
-0.0220804
-0.0245028
-0.0253746
-0.0245757
-0.0222311
-0.0186297
-0.0142096
-0.00957738
-0.00552729
-0.00289365
-0.00214262
-0.00396267
0.00127624
0.000433312
-0.00119714
-0.00428229
-0.00895074
-0.014787
-0.0209377
-0.0265417
-0.0309862
-0.0339527
-0.0353121
-0.0349634
-0.0329899
-0.0295384
-0.0247494
-0.0188417
-0.0124147
-0.00688122
-0.00434557
-0.00646257
-6.42975e-05
-0.00115604
-0.00348972
-0.00775462
-0.0138453
-0.0209755
-0.028045
-0.0341682
-0.0388491
-0.041925
-0.0434017
-0.043299
-0.0416837
-0.038624
-0.0340974
-0.0279872
-0.0204114
-0.0126129
-0.00778963
-0.00769225
-0.00245802
-0.00374037
-0.00667264
-0.0118455
-0.0189161
-0.026796
-0.0342562
-0.0404734
-0.0450961
-0.0480871
-0.0495336
-0.0495299
-0.0481547
-0.0454547
-0.041381
-0.0357008
-0.0281535
-0.019249
-0.0117426
-0.00792795
-0.00553077
-0.00689777
-0.0102176
-0.0159267
-0.0234987
-0.0316596
-0.0391508
-0.0452458
-0.0497126
-0.0525899
-0.0539975
-0.054041
-0.0527947
-0.0503163
-0.0466147
-0.0415314
-0.0346505
-0.0257889
-0.0166034
-0.00992644
-0.00871069
-0.0100516
-0.0135317
-0.0194225
-0.0270967
-0.0352209
-0.0425687
-0.0484927
-0.0528278
-0.0556371
-0.0570355
-0.0571087
-0.0559198
-0.05354
-0.0500494
-0.0454344
-0.0393793
-0.0313324
-0.0221842
-0.0142405
-0.0114676
-0.0127099
-0.0161382
-0.0219175
-0.0293976
-0.0372991
-0.0444556
-0.0502503
-0.0545251
-0.0573244
-0.058739
-0.0588317
-0.0576531
-0.0552796
-0.0518519
-0.0474989
-0.0421547
-0.0351717
-0.027039
-0.0190525
-0.0135052
-0.0145629
-0.0177674
-0.0231722
-0.0302155
-0.0377669
-0.0447394
-0.0504918
-0.0548011
-0.0576594
-0.0591186
-0.0592221
-0.0580117
-0.0555649
-0.0520746
-0.0477823
-0.0429313
-0.0368466
-0.0298697
-0.0222803
-0.014791
-0.0155116
-0.0182655
-0.0230729
-0.0294879
-0.0365956
-0.0434008
-0.0491981
-0.0536436
-0.0566373
-0.0581784
-0.0582872
-0.0570006
-0.0544185
-0.0507586
-0.046325
-0.0417162
-0.0361159
-0.0300822
-0.0227721
-0.015423
-0.0156713
-0.0177021
-0.0216273
-0.02721
-0.0337801
-0.0404225
-0.0463375
-0.0510231
-0.0542479
-0.055935
-0.0560776
-0.0546901
-0.0519026
-0.047976
-0.0433004
-0.0385332
-0.0330066
-0.0279926
-0.0201934
-0.0155332
-0.0152562
-0.0162806
-0.0189975
-0.0235129
-0.0294307
-0.0358975
-0.0419906
-0.0470186
-0.0505821
-0.0524981
-0.0527055
-0.0512454
-0.0482077
-0.0439249
-0.0388421
-0.0336543
-0.0280052
-0.0241816
-0.0143595
-0.0152414
-0.0145181
-0.014224
-0.0153709
-0.0185938
-0.0237509
-0.0300238
-0.0363401
-0.0418019
-0.0458186
-0.0480825
-0.0484631
-0.0469836
-0.0437141
-0.0390252
-0.0333868
-0.0275928
-0.0216395
-0.0180916
-0.00387992
-0.0146345
-0.0135964
-0.0116919
-0.0110643
-0.0129158
-0.0173007
-0.0233973
-0.0299703
-0.0359334
-0.0405052
-0.0432474
-0.0439327
-0.0425538
-0.0391427
-0.0340353
-0.0276333
-0.020713
-0.0133718
-0.00691836
0.0159359
-0.0145679
-0.012647
-0.00865465
-0.00625437
-0.00692178
-0.0107254
-0.0167463
-0.0236081
-0.0301079
-0.0353016
-0.0386397
-0.0397723
-0.0386457
-0.0352734
-0.0298025
-0.0222786
-0.0129708
-0.000860788
0.0164879
0.0568918
-0.0117917
-0.0118341
-0.00575607
-0.00182656
-0.00181481
-0.00542812
-0.0115511
-0.018732
-0.0257336
-0.0314973
-0.0354432
-0.0371392
-0.0364871
-0.0332115
-0.0271625
-0.0175773
-0.00328305
0.0202785
0.06047
0.129631
-0.0295088
-0.0106417
-0.000652713
0.00301477
0.00238223
-0.00159814
-0.00799456
-0.0154904
-0.0228538
-0.0290019
-0.0333289
-0.0353787
-0.035014
-0.0318192
-0.0251654
-0.0128878
0.00929822
0.0509768
0.122669
0.225906
)
;

boundaryField
{
    movingWall
    {
        type            zeroGradient;
    }
    fixedWalls
    {
        type            zeroGradient;
    }
    frontAndBack
    {
        type            empty;
    }
}


// ************************************************************************* //
