/*--------------------------------*- C++ -*----------------------------------*\
| =========                 |                                                 |
| \\      /  F ield         | OpenFOAM: The Open Source CFD Toolbox           |
|  \\    /   O peration     | Version:  2212                                  |
|   \\  /    A nd           | Website:  www.openfoam.com                      |
|    \\/     M anipulation  |                                                 |
\*---------------------------------------------------------------------------*/
FoamFile
{
    version     2.0;
    format      ascii;
    arch        "LSB;label=32;scalar=64";
    class       volVectorField;
    location    "4.86";
    object      U;
}
// * * * * * * * * * * * * * * * * * * * * * * * * * * * * * * * * * * * * * //

dimensions      [0 1 -1 0 0 0 0];

internalField   nonuniform List<vector> 
400
(
(0.00167197 -0.00167525 0)
(0.0048067 -0.00188153 0)
(0.00654092 -0.00119461 0)
(0.0056191 -0.000571 0)
(0.00152194 0.000187688 0)
(-0.00685631 0.00173857 0)
(-0.0205881 0.0047695 0)
(-0.039452 0.00869882 0)
(-0.060653 0.0112511 0)
(-0.0789438 0.0104886 0)
(-0.0896283 0.00677444 0)
(-0.0903248 0.00168738 0)
(-0.0801647 -0.00358445 0)
(-0.0600187 -0.00823893 0)
(-0.0336267 -0.010817 0)
(-0.00545287 -0.00978151 0)
(0.016551 -0.00479399 0)
(0.0243372 0.00274554 0)
(0.0161203 0.00644268 0)
(0.00430701 0.00470238 0)
(0.00170216 -0.00502773 0)
(0.00311177 -0.00399205 0)
(-0.000483809 0.00060511 0)
(-0.0113771 0.00643497 0)
(-0.0314097 0.0140122 0)
(-0.0610242 0.0236903 0)
(-0.0965959 0.032938 0)
(-0.131111 0.0369698 0)
(-0.158572 0.0334349 0)
(-0.175696 0.0233768 0)
(-0.181073 0.00914222 0)
(-0.174758 -0.00691021 0)
(-0.157322 -0.0230591 0)
(-0.129506 -0.036788 0)
(-0.093568 -0.0444561 0)
(-0.0522429 -0.0417772 0)
(-0.0115125 -0.0263509 0)
(0.0167553 -0.00136033 0)
(0.017796 0.0161368 0)
(0.00552891 0.0147706 0)
(-0.00025712 -0.00570961 0)
(-0.00541425 0.000863492 0)
(-0.0196215 0.0142932 0)
(-0.0444389 0.0311488 0)
(-0.0801424 0.0492761 0)
(-0.121855 0.0640949 0)
(-0.161875 0.070317 0)
(-0.194711 0.0658453 0)
(-0.218252 0.0520832 0)
(-0.231904 0.0315156 0)
(-0.235679 0.00648908 0)
(-0.230237 -0.0209588 0)
(-0.215891 -0.0486568 0)
(-0.192135 -0.0729843 0)
(-0.158704 -0.0888032 0)
(-0.115561 -0.0890765 0)
(-0.0645102 -0.0669923 0)
(-0.0138818 -0.0227719 0)
(0.00943392 0.0177796 0)
(0.0041537 0.0234996 0)
(-0.00347175 0.000535737 0)
(-0.0174898 0.017273 0)
(-0.0434185 0.0414045 0)
(-0.0794525 0.0679692 0)
(-0.122564 0.0908426 0)
(-0.165309 0.103501 0)
(-0.201269 0.102591 0)
(-0.22851 0.0894347 0)
(-0.247294 0.0671897 0)
(-0.258225 0.0385596 0)
(-0.262141 0.00542102 0)
(-0.259845 -0.0308938 0)
(-0.251274 -0.0681388 0)
(-0.235383 -0.103373 0)
(-0.210178 -0.131122 0)
(-0.172958 -0.142587 0)
(-0.121166 -0.125595 0)
(-0.0567793 -0.0708707 0)
(-0.00102488 0.00341208 0)
(0.00474042 0.0281392 0)
(-0.00664375 0.0148318 0)
(-0.028639 0.0440563 0)
(-0.0630761 0.0768658 0)
(-0.104086 0.108545 0)
(-0.146743 0.130757 0)
(-0.183914 0.137746 0)
(-0.212155 0.129113 0)
(-0.23186 0.108449 0)
(-0.244319 0.0796187 0)
(-0.25126 0.0454091 0)
(-0.254372 0.00735654 0)
(-0.254583 -0.0337301 0)
(-0.251669 -0.0766914 0)
(-0.245074 -0.120211 0)
(-0.231985 -0.160321 0)
(-0.207783 -0.188569 0)
(-0.166424 -0.189629 0)
(-0.103229 -0.142716 0)
(-0.0221805 -0.0389472 0)
(0.00735451 0.0269807 0)
(-0.00847512 0.034842 0)
(-0.0350342 0.0764614 0)
(-0.0727977 0.11458 0)
(-0.112804 0.147184 0)
(-0.149923 0.165462 0)
(-0.178678 0.165424 0)
(-0.198112 0.149287 0)
(-0.209773 0.122132 0)
(-0.215646 0.0883052 0)
(-0.218217 0.0507944 0)
(-0.21946 0.0110662 0)
(-0.220382 -0.0304605 0)
(-0.221185 -0.0742626 0)
(-0.221961 -0.120724 0)
(-0.220512 -0.168626 0)
(-0.211735 -0.212479 0)
(-0.187542 -0.238083 0)
(-0.139346 -0.218173 0)
(-0.0626919 -0.118806 0)
(0.00580079 0.0141136 0)
(-0.00824938 0.0568714 0)
(-0.0351736 0.109699 0)
(-0.0715098 0.149984 0)
(-0.106598 0.180542 0)
(-0.13611 0.193201 0)
(-0.156421 0.185844 0)
(-0.168236 0.162758 0)
(-0.173669 0.130079 0)
(-0.175133 0.0925799 0)
(-0.175139 0.0532782 0)
(-0.175203 0.0134135 0)
(-0.176013 -0.026968 0)
(-0.178118 -0.0690174 0)
(-0.182052 -0.114024 0)
(-0.187158 -0.163107 0)
(-0.189785 -0.215114 0)
(-0.18203 -0.261051 0)
(-0.153896 -0.274673 0)
(-0.0991218 -0.205568 0)
(-0.00889605 -0.0146812 0)
(-0.00609651 0.0773586 0)
(-0.0296325 0.140119 0)
(-0.0611198 0.180594 0)
(-0.089459 0.207586 0)
(-0.111364 0.214154 0)
(-0.124812 0.199871 0)
(-0.131398 0.17071 0)
(-0.133426 0.133647 0)
(-0.133356 0.0936829 0)
(-0.133144 0.0535364 0)
(-0.133486 0.0139312 0)
(-0.134572 -0.0255073 0)
(-0.136865 -0.0658124 0)
(-0.141054 -0.108224 0)
(-0.147742 -0.154735 0)
(-0.155598 -0.207707 0)
(-0.158615 -0.265167 0)
(-0.146412 -0.307525 0)
(-0.111989 -0.276726 0)
(-0.0308631 -0.0752092 0)
(-0.00270501 0.0932792 0)
(-0.0202927 0.165091 0)
(-0.0449042 0.204877 0)
(-0.0659933 0.227756 0)
(-0.0811769 0.228704 0)
(-0.0895878 0.208756 0)
(-0.0931187 0.175062 0)
(-0.093908 0.135111 0)
(-0.0940586 0.0939165 0)
(-0.0947505 0.0537187 0)
(-0.0960383 0.0146119 0)
(-0.0978316 -0.0241926 0)
(-0.100305 -0.0634869 0)
(-0.103966 -0.103984 0)
(-0.10996 -0.147334 0)
(-0.119009 -0.197501 0)
(-0.127938 -0.258915 0)
(-0.126256 -0.322754 0)
(-0.10727 -0.334146 0)
(-0.0372524 -0.163016 0)
(0.00122232 0.102354 0)
(-0.00887182 0.182838 0)
(-0.0254849 0.222347 0)
(-0.0394076 0.24186 0)
(-0.0488249 0.23861 0)
(-0.0536352 0.214667 0)
(-0.0555224 0.177954 0)
(-0.0561372 0.136334 0)
(-0.0570027 0.0947357 0)
(-0.0586712 0.0548704 0)
(-0.0609183 0.0162756 0)
(-0.0635982 -0.0221127 0)
(-0.0667064 -0.06096 0)
(-0.0704286 -0.100522 0)
(-0.0757039 -0.141533 0)
(-0.0841099 -0.187681 0)
(-0.0957338 -0.247317 0)
(-0.100476 -0.32354 0)
(-0.0950413 -0.371563 0)
(-0.0308751 -0.242033 0)
(0.00509354 0.103492 0)
(0.00296065 0.192377 0)
(-0.00533779 0.232784 0)
(-0.0124109 0.249838 0)
(-0.0167657 0.243735 0)
(-0.0186161 0.217542 0)
(-0.019256 0.179516 0)
(-0.019729 0.137513 0)
(-0.0209793 0.0962167 0)
(-0.0231825 0.0569565 0)
(-0.0260482 0.0189947 0)
(-0.029511 -0.0188271 0)
(-0.0335885 -0.0572176 0)
(-0.0382308 -0.0962794 0)
(-0.0439918 -0.135984 0)
(-0.0521241 -0.178792 0)
(-0.0655402 -0.234466 0)
(-0.0741441 -0.317231 0)
(-0.0811382 -0.396023 0)
(-0.0229219 -0.30652 0)
(0.00840033 0.0970421 0)
(0.0141465 0.193349 0)
(0.0140355 0.236284 0)
(0.0136475 0.252595 0)
(0.0142736 0.245491 0)
(0.0154744 0.218802 0)
(0.0163417 0.180788 0)
(0.0164036 0.139147 0)
(0.0152654 0.0983696 0)
(0.0129797 0.0597206 0)
(0.00981121 0.022496 0)
(0.00572184 -0.0144615 0)
(0.000566898 -0.0519843 0)
(-0.00551896 -0.0902182 0)
(-0.0129433 -0.128831 0)
(-0.0218857 -0.168887 0)
(-0.0376495 -0.219423 0)
(-0.0487681 -0.303554 0)
(-0.0679182 -0.407785 0)
(-0.0144665 -0.359396 0)
(0.0102439 0.0841442 0)
(0.023267 0.185784 0)
(0.0308937 0.232422 0)
(0.0367932 0.24915 0)
(0.0424247 0.242282 0)
(0.0473492 0.216517 0)
(0.0507544 0.179797 0)
(0.0523935 0.139474 0)
(0.0522186 0.0998712 0)
(0.0504453 0.0623228 0)
(0.0473116 0.0263061 0)
(0.0427186 -0.00927683 0)
(0.0364927 -0.0453523 0)
(0.0287433 -0.0821316 0)
(0.0186855 -0.119274 0)
(0.00743598 -0.157053 0)
(-0.01192 -0.203107 0)
(-0.0243913 -0.285539 0)
(-0.0559217 -0.410324 0)
(-0.00616347 -0.401289 0)
(0.00978606 0.0670242 0)
(0.028818 0.170064 0)
(0.0440622 0.221393 0)
(0.0565363 0.240368 0)
(0.0677646 0.235402 0)
(0.077387 0.212057 0)
(0.0845409 0.177814 0)
(0.0889231 0.139563 0)
(0.0906126 0.101558 0)
(0.0899204 0.0653604 0)
(0.0871832 0.0308213 0)
(0.0821496 -0.00308985 0)
(0.0746897 -0.0369725 0)
(0.0650799 -0.0714323 0)
(0.0519621 -0.106292 0)
(0.0371585 -0.141465 0)
(0.0128503 -0.182996 0)
(-0.00017058 -0.26234 0)
(-0.0449276 -0.406089 0)
(0.00272186 -0.435755 0)
(0.0068621 0.049337 0)
(0.0291272 0.148484 0)
(0.050747 0.202907 0)
(0.0695211 0.223687 0)
(0.0869008 0.220783 0)
(0.1025 0.200642 0)
(0.115074 0.170106 0)
(0.123939 0.135312 0)
(0.129012 0.100263 0)
(0.130552 0.0666487 0)
(0.128833 0.0347081 0)
(0.123909 0.00361108 0)
(0.115318 -0.0269822 0)
(0.103677 -0.0579412 0)
(0.0867472 -0.0893305 0)
(0.0677228 -0.121782 0)
(0.0378513 -0.15971 0)
(0.0235581 -0.236328 0)
(-0.0346037 -0.398423 0)
(0.0134088 -0.46404 0)
(0.00236089 0.0346894 0)
(0.0234349 0.123599 0)
(0.0505766 0.17937 0)
(0.0761627 0.202211 0)
(0.100695 0.201837 0)
(0.12345 0.185443 0)
(0.142777 0.15944 0)
(0.157463 0.129101 0)
(0.167094 0.0980418 0)
(0.171892 0.067958 0)
(0.171809 0.0394364 0)
(0.167568 0.0120578 0)
(0.157782 -0.0145408 0)
(0.144145 -0.0411073 0)
(0.123017 -0.067951 0)
(0.099667 -0.0966169 0)
(0.0640406 -0.131759 0)
(0.046678 -0.206797 0)
(-0.0228979 -0.386718 0)
(0.0284387 -0.485309 0)
(-0.00340963 0.0287681 0)
(0.00992676 0.101387 0)
(0.036773 0.148287 0)
(0.0684671 0.168885 0)
(0.1012 0.170036 0)
(0.132762 0.157745 0)
(0.160607 0.137356 0)
(0.183007 0.113037 0)
(0.19893 0.0878671 0)
(0.208746 0.0633738 0)
(0.211611 0.0403002 0)
(0.209326 0.0185105 0)
(0.199119 -0.00236812 0)
(0.184584 -0.0228299 0)
(0.15995 -0.0433567 0)
(0.133544 -0.067036 0)
(0.0922803 -0.100976 0)
(0.0695547 -0.179485 0)
(-0.00454817 -0.369825 0)
(0.0520716 -0.49152 0)
(-0.0139097 0.0186673 0)
(-0.00750269 0.0882064 0)
(0.0190188 0.123999 0)
(0.0560518 0.136965 0)
(0.0969991 0.136472 0)
(0.13718 0.127269 0)
(0.173244 0.112636 0)
(0.202913 0.0949135 0)
(0.224669 0.0765269 0)
(0.239642 0.0584826 0)
(0.245624 0.0417388 0)
(0.246517 0.0261735 0)
(0.237252 0.0119513 0)
(0.225527 -0.00173487 0)
(0.200723 -0.0156797 0)
(0.176982 -0.0345759 0)
(0.132911 -0.067357 0)
(0.107512 -0.145746 0)
(0.0373251 -0.326089 0)
(0.0923079 -0.45586 0)
(-0.105947 0.0825237 0)
(-0.0776949 0.0690803 0)
(-0.0485862 0.0733014 0)
(0.00360893 0.0777208 0)
(0.0569353 0.077995 0)
(0.109472 0.0737098 0)
(0.156457 0.0663865 0)
(0.198644 0.0570145 0)
(0.230627 0.0473922 0)
(0.258673 0.0377964 0)
(0.274364 0.0292027 0)
(0.289512 0.0212831 0)
(0.289935 0.0145937 0)
(0.294144 0.00825745 0)
(0.278032 0.00133581 0)
(0.271008 -0.00980466 0)
(0.231893 -0.0353871 0)
(0.217949 -0.0953402 0)
(0.150174 -0.229723 0)
(0.170666 -0.341475 0)
(0.130009 0.103771 0)
(0.158405 0.0753039 0)
(0.212302 0.0533145 0)
(0.270805 0.0416915 0)
(0.323322 0.0359573 0)
(0.375662 0.0319709 0)
(0.420142 0.0289263 0)
(0.465341 0.0255852 0)
(0.498339 0.0229096 0)
(0.533513 0.0197225 0)
(0.552914 0.0175691 0)
(0.578721 0.0146396 0)
(0.584894 0.0132053 0)
(0.603303 0.0103939 0)
(0.594822 0.0094375 0)
(0.603436 0.00504792 0)
(0.567739 0.000127927 0)
(0.547674 -0.0182931 0)
(0.435805 -0.0504142 0)
(0.336808 -0.101397 0)
)
;

boundaryField
{
    movingWall
    {
        type            fixedValue;
        value           uniform (1 0 0);
    }
    fixedWalls
    {
        type            noSlip;
    }
    frontAndBack
    {
        type            empty;
    }
}


// ************************************************************************* //
