/*--------------------------------*- C++ -*----------------------------------*\
| =========                 |                                                 |
| \\      /  F ield         | OpenFOAM: The Open Source CFD Toolbox           |
|  \\    /   O peration     | Version:  2212                                  |
|   \\  /    A nd           | Website:  www.openfoam.com                      |
|    \\/     M anipulation  |                                                 |
\*---------------------------------------------------------------------------*/
FoamFile
{
    version     2.0;
    format      ascii;
    arch        "LSB;label=32;scalar=64";
    class       volScalarField;
    location    "4.19";
    object      p;
}
// * * * * * * * * * * * * * * * * * * * * * * * * * * * * * * * * * * * * * //

dimensions      [0 2 -2 0 0 0 0];

internalField   nonuniform List<scalar> 
400
(
-9.97715e-09
-0.000150417
-0.000531231
-0.00106426
-0.00171999
-0.00247481
-0.00316044
-0.00356986
-0.00353669
-0.00290745
-0.00152872
0.000627694
0.00324831
0.00551343
0.0065492
0.00596734
0.00407415
0.00223704
0.00120053
0.00112877
0.000116036
-5.72502e-05
-0.000373205
-0.000757868
-0.00123501
-0.00187386
-0.00268354
-0.00351131
-0.00404087
-0.00389865
-0.00281352
-0.000803539
0.00170073
0.00397226
0.00515094
0.00479584
0.00318474
0.00146696
0.000686572
0.000772973
0.000531648
0.000263484
-7.54567e-05
-0.000554185
-0.00133482
-0.00255499
-0.0041746
-0.00591835
-0.00732066
-0.00785619
-0.0071828
-0.00539269
-0.0028357
-0.000145929
0.00184523
0.00249711
0.00179806
0.00060091
-0.000295933
-0.000298094
0.00113791
0.000731356
0.000188866
-0.000766683
-0.00242281
-0.00487888
-0.00789887
-0.0109868
-0.01354
-0.0149985
-0.0150295
-0.0136752
-0.0111495
-0.00790602
-0.00464412
-0.00210808
-0.000769595
-0.000605094
-0.00118621
-0.00181762
0.00155394
0.000952378
-2.92111e-05
-0.00190348
-0.00494393
-0.00906247
-0.0137361
-0.0182458
-0.0219374
-0.0243467
-0.0252154
-0.0244238
-0.0220941
-0.0185118
-0.0141113
-0.00949711
-0.00546218
-0.00283962
-0.00209417
-0.00390916
0.00125435
0.000418211
-0.00119737
-0.00425652
-0.0088888
-0.0146837
-0.0207939
-0.0263622
-0.0307788
-0.0337275
-0.0350809
-0.0347395
-0.0327839
-0.0293577
-0.0245979
-0.0187207
-0.0123232
-0.00681447
-0.00429171
-0.00640274
-8.44781e-05
-0.00116704
-0.00347881
-0.00770664
-0.0137489
-0.0208273
-0.0278482
-0.0339289
-0.0385757
-0.0416286
-0.043096
-0.0429993
-0.041404
-0.0383754
-0.0338869
-0.027818
-0.0202838
-0.0125233
-0.00772554
-0.00763837
-0.00246817
-0.00373944
-0.00664371
-0.0117704
-0.0187831
-0.0266034
-0.0340082
-0.0401761
-0.0447577
-0.0477193
-0.0491519
-0.0491523
-0.0477987
-0.0451353
-0.0411085
-0.0354797
-0.0279836
-0.0191284
-0.0116643
-0.00787723
-0.00552464
-0.00687948
-0.0101671
-0.0158236
-0.0233311
-0.0314265
-0.0388564
-0.0448955
-0.0493145
-0.052156
-0.0535449
-0.0535902
-0.0523668
-0.0499296
-0.0462826
-0.0412598
-0.0344381
-0.025633
-0.0164995
-0.00986012
-0.0086869
-0.0100152
-0.0134607
-0.0192952
-0.0269007
-0.0349553
-0.042237
-0.0480998
-0.0523815
-0.0551501
-0.0565261
-0.0565993
-0.055434
-0.0530986
-0.049668
-0.0451207
-0.0391313
-0.0311447
-0.0220495
-0.014143
-0.0114297
-0.0126591
-0.016052
-0.0217738
-0.0291833
-0.0370126
-0.0440998
-0.0498298
-0.0540479
-0.0568035
-0.0581936
-0.0582854
-0.0571306
-0.0548038
-0.0514398
-0.047159
-0.0418855
-0.0349644
-0.0268821
-0.0189273
-0.0134595
-0.0145045
-0.0176743
-0.023023
-0.0299965
-0.0374749
-0.0443766
-0.0500627
-0.0543141
-0.0571276
-0.0585616
-0.058664
-0.0574781
-0.0550797
-0.0516555
-0.0474387
-0.0426613
-0.0366391
-0.0297082
-0.0221439
-0.0147436
-0.0154534
-0.0181754
-0.0229305
-0.0292789
-0.0363152
-0.0430499
-0.0487811
-0.0531687
-0.0561181
-0.0576344
-0.0577429
-0.0564819
-0.0539496
-0.0503577
-0.0460023
-0.0414693
-0.035931
-0.0299368
-0.022647
-0.0153777
-0.0156196
-0.0176243
-0.0215039
-0.0270262
-0.0335285
-0.0401023
-0.0459523
-0.0505811
-0.0537629
-0.0554264
-0.0555688
-0.054209
-0.0514734
-0.0476172
-0.0430219
-0.0383333
-0.0328675
-0.0278815
-0.0201043
-0.0154923
-0.0152144
-0.0162219
-0.0189038
-0.0233682
-0.0292241
-0.0356251
-0.0416546
-0.0466269
-0.0501487
-0.052043
-0.0522532
-0.0508203
-0.0478364
-0.0436271
-0.0386275
-0.0335201
-0.0279315
-0.0241259
-0.0143294
-0.0152069
-0.0144875
-0.014188
-0.0153144
-0.0184988
-0.023602
-0.0298127
-0.0360666
-0.0414731
-0.0454483
-0.0476909
-0.0480747
-0.046625
-0.0434118
-0.0387995
-0.0332474
-0.027535
-0.0216409
-0.0181237
-0.00392303
-0.0146088
-0.0135775
-0.0116802
-0.0110493
-0.0128764
-0.0172163
-0.0232545
-0.0297658
-0.0356729
-0.0402023
-0.0429222
-0.0436101
-0.0422608
-0.0389083
-0.0338799
-0.0275683
-0.0207346
-0.0134602
-0.0070481
0.0158194
-0.0145558
-0.0126412
-0.008667
-0.00627997
-0.006936
-0.0107028
-0.0166692
-0.0234699
-0.0299127
-0.0350624
-0.0383765
-0.0395108
-0.0384135
-0.0350958
-0.0297031
-0.0222739
-0.0130627
-0.00103119
0.0162773
0.0567147
-0.0117937
-0.0118446
-0.00579638
-0.00188844
-0.00187113
-0.00545249
-0.0115232
-0.0186432
-0.0255862
-0.0313037
-0.0352229
-0.0369163
-0.0362883
-0.0330653
-0.0270965
-0.017608
-0.0034153
0.020064
0.0602272
0.129431
-0.0295065
-0.0106632
-0.000709274
0.00293628
0.00230771
-0.00164206
-0.00798737
-0.0154223
-0.0227264
-0.0288264
-0.0331242
-0.035169
-0.0348262
-0.0316808
-0.0250998
-0.0129125
0.00917415
0.0507773
0.122451
0.225725
)
;

boundaryField
{
    movingWall
    {
        type            zeroGradient;
    }
    fixedWalls
    {
        type            zeroGradient;
    }
    frontAndBack
    {
        type            empty;
    }
}


// ************************************************************************* //
