/*--------------------------------*- C++ -*----------------------------------*\
| =========                 |                                                 |
| \\      /  F ield         | OpenFOAM: The Open Source CFD Toolbox           |
|  \\    /   O peration     | Version:  2212                                  |
|   \\  /    A nd           | Website:  www.openfoam.com                      |
|    \\/     M anipulation  |                                                 |
\*---------------------------------------------------------------------------*/
FoamFile
{
    version     2.0;
    format      ascii;
    arch        "LSB;label=32;scalar=64";
    class       volScalarField;
    location    "2.74";
    object      p;
}
// * * * * * * * * * * * * * * * * * * * * * * * * * * * * * * * * * * * * * //

dimensions      [0 2 -2 0 0 0 0];

internalField   nonuniform List<scalar> 
400
(
2.05704e-08
-0.00014405
-0.000501596
-0.00100455
-0.00162464
-0.00233405
-0.00298259
-0.00337056
-0.00332951
-0.00271062
-0.00137403
0.000704116
0.00323875
0.00545478
0.00651805
0.00604238
0.00428115
0.0025301
0.00151549
0.00143118
0.000117529
-4.70885e-05
-0.000342461
-0.000709259
-0.00116534
-0.001766
-0.0025176
-0.00328173
-0.00376487
-0.00361479
-0.00257042
-0.000638132
0.0017801
0.00399987
0.00519724
0.00493162
0.00344677
0.00179292
0.00102362
0.0010875
0.000502897
0.000256741
-5.94002e-05
-0.000510752
-0.00124005
-0.0023723
-0.00387521
-0.00549848
-0.00680969
-0.00731349
-0.00667471
-0.00495776
-0.0024944
0.00011601
0.00207628
0.0027549
0.00212038
0.000963545
7.47283e-05
4.93947e-05
0.00105076
0.000672563
0.000177624
-0.000700288
-0.00222529
-0.00449928
-0.00731648
-0.0102172
-0.0126334
-0.0140284
-0.0140718
-0.0127865
-0.0103732
-0.00725725
-0.00410692
-0.00164815
-0.000356188
-0.000218953
-0.000807759
-0.00143913
0.001383
0.000833694
-4.93253e-05
-0.00175416
-0.00454912
-0.00837472
-0.0127611
-0.0170309
-0.0205539
-0.0228745
-0.0237339
-0.0230142
-0.0208167
-0.0174025
-0.0131849
-0.00875353
-0.00488807
-0.00239917
-0.00172566
-0.00349203
0.00104382
0.000283628
-0.00116703
-0.00395037
-0.00821969
-0.0136298
-0.0193994
-0.0247044
-0.0289446
-0.0318013
-0.0331452
-0.0328798
-0.0310644
-0.0278266
-0.0232895
-0.0176607
-0.0115259
-0.0062568
-0.00386931
-0.00594209
-0.000259708
-0.00124383
-0.00332467
-0.00718313
-0.0127727
-0.0194125
-0.026072
-0.0318857
-0.0363564
-0.039317
-0.0407743
-0.0407499
-0.039298
-0.0364732
-0.0322365
-0.026456
-0.0192362
-0.0117893
-0.0072174
-0.00723418
-0.00252739
-0.00368525
-0.00630979
-0.0110024
-0.0175116
-0.0248723
-0.0319133
-0.037815
-0.0422176
-0.0450805
-0.0464954
-0.0465601
-0.0453503
-0.0429031
-0.0391524
-0.0338409
-0.0266871
-0.0181898
-0.011057
-0.00749755
-0.00541758
-0.00665361
-0.00963576
-0.0148248
-0.0218085
-0.029443
-0.0365139
-0.0422878
-0.0465231
-0.0492583
-0.0506211
-0.0507238
-0.0496417
-0.0474253
-0.0440685
-0.0393842
-0.0329207
-0.0244876
-0.0157187
-0.00935736
-0.00841283
-0.0096233
-0.0127561
-0.0181142
-0.025196
-0.0327973
-0.0397271
-0.0453267
-0.0494236
-0.0520834
-0.053431
-0.0535584
-0.0525295
-0.050411
-0.0472712
-0.0430711
-0.0374492
-0.0298293
-0.0210727
-0.0134153
-0.0110316
-0.0121449
-0.0152314
-0.0204859
-0.0273837
-0.0347693
-0.0415101
-0.0469801
-0.0510157
-0.0536657
-0.0550301
-0.0551764
-0.0541537
-0.0520363
-0.0489562
-0.0450205
-0.0401181
-0.0335526
-0.0257714
-0.018014
-0.0129983
-0.0139317
-0.0168115
-0.0217179
-0.0282007
-0.0352439
-0.0418003
-0.0472272
-0.0512987
-0.0540109
-0.0554236
-0.0555832
-0.0545273
-0.0523346
-0.0491868
-0.0453116
-0.0409066
-0.0352325
-0.0285677
-0.0211535
-0.0142736
-0.0148921
-0.0173525
-0.021702
-0.0275872
-0.0341948
-0.0405789
-0.0460448
-0.0502502
-0.0530994
-0.0545973
-0.0547667
-0.0536409
-0.0513154
-0.0480006
-0.04399
-0.0398367
-0.0346485
-0.0288828
-0.0217167
-0.0149342
-0.0151236
-0.0169144
-0.02044
-0.0255344
-0.0316155
-0.0378273
-0.0433965
-0.0478314
-0.0509069
-0.0525508
-0.0527542
-0.0515416
-0.0490255
-0.0454607
-0.0412255
-0.0369413
-0.0318327
-0.0270179
-0.0193857
-0.0150939
-0.0148134
-0.0156805
-0.0180825
-0.0221693
-0.0276141
-0.0336347
-0.0393554
-0.0441092
-0.0475095
-0.0493804
-0.0496617
-0.0483818
-0.0456401
-0.0417538
-0.0371481
-0.0324745
-0.0272601
-0.023591
-0.013978
-0.0148721
-0.0141919
-0.0138463
-0.0147963
-0.0176746
-0.0223841
-0.0281918
-0.0340985
-0.0392495
-0.0430765
-0.0452816
-0.0457359
-0.04446
-0.0415218
-0.0372762
-0.0321661
-0.0269233
-0.0214214
-0.018152
-0.00406085
-0.0143587
-0.0133941
-0.01156
-0.0108822
-0.012487
-0.0164563
-0.0220686
-0.0281883
-0.033793
-0.0381362
-0.0407943
-0.0415448
-0.0403789
-0.0373407
-0.0327295
-0.0269215
-0.020623
-0.0138224
-0.00777178
0.0151366
-0.0144306
-0.0125857
-0.00877386
-0.00647273
-0.00698748
-0.0104103
-0.0159361
-0.0223074
-0.0284024
-0.0333247
-0.0365492
-0.037738
-0.0368329
-0.0338313
-0.0288862
-0.0220248
-0.0134531
-0.00201717
0.0148994
0.0555229
-0.0117977
-0.0119588
-0.00618493
-0.00242163
-0.00228645
-0.00553527
-0.0111546
-0.017816
-0.0243745
-0.029832
-0.033634
-0.0353569
-0.0349028
-0.0320059
-0.0265194
-0.0176387
-0.00414277
0.0186886
0.0585373
0.12799
-0.0295037
-0.010906
-0.00126004
0.00224587
0.00172872
-0.00189273
-0.00778447
-0.0147495
-0.0216518
-0.0274708
-0.0316303
-0.0336878
-0.0335079
-0.0306754
-0.0245456
-0.0129401
0.00844822
0.0494551
0.12091
0.224382
)
;

boundaryField
{
    movingWall
    {
        type            zeroGradient;
    }
    fixedWalls
    {
        type            zeroGradient;
    }
    frontAndBack
    {
        type            empty;
    }
}


// ************************************************************************* //
