/*--------------------------------*- C++ -*----------------------------------*\
| =========                 |                                                 |
| \\      /  F ield         | OpenFOAM: The Open Source CFD Toolbox           |
|  \\    /   O peration     | Version:  2212                                  |
|   \\  /    A nd           | Website:  www.openfoam.com                      |
|    \\/     M anipulation  |                                                 |
\*---------------------------------------------------------------------------*/
FoamFile
{
    version     2.0;
    format      ascii;
    arch        "LSB;label=32;scalar=64";
    class       surfaceScalarField;
    location    "2.785";
    object      phi;
}
// * * * * * * * * * * * * * * * * * * * * * * * * * * * * * * * * * * * * * //

dimensions      [0 3 -1 0 0 0 0];

oriented        oriented;

internalField   nonuniform List<scalar> 
760
(
1.40422e-07
-1.40422e-07
2.60677e-07
-1.20255e-07
2.69978e-07
-9.3005e-09
1.46047e-07
1.23931e-07
-1.4564e-07
2.91687e-07
-6.63567e-07
5.17927e-07
-1.43802e-06
7.74453e-07
-2.39271e-06
9.5469e-07
-3.34212e-06
9.4941e-07
-4.06472e-06
7.22598e-07
-4.394e-06
3.29287e-07
-4.23429e-06
-1.59716e-07
-3.52192e-06
-7.12365e-07
-2.3634e-06
-1.15853e-06
-9.78618e-07
-1.38478e-06
2.70936e-07
-1.24955e-06
1.00901e-06
-7.3807e-07
9.79589e-07
2.94174e-08
4.4115e-07
5.38439e-07
4.4115e-07
1.00275e-07
-2.40697e-07
3.22669e-08
-5.2248e-08
-3.29554e-07
3.5252e-07
-1.07259e-06
8.66967e-07
-2.24242e-06
1.46152e-06
-3.77124e-06
2.04675e-06
-5.43276e-06
2.43598e-06
-6.93146e-06
2.45338e-06
-8.04338e-06
2.06134e-06
-8.6531e-06
1.33231e-06
-8.71043e-06
3.86619e-07
-8.18824e-06
-6.81903e-07
-7.11691e-06
-1.7837e-06
-5.52636e-06
-2.74907e-06
-3.55493e-06
-3.35622e-06
-1.49751e-06
-3.30697e-06
1.29516e-07
-2.36509e-06
8.10285e-07
-6.51353e-07
5.04152e-07
8.44572e-07
9.45301e-07
-1.41551e-07
-9.91459e-08
-6.37164e-07
4.43365e-07
-1.58119e-06
1.29655e-06
-3.01681e-06
2.30259e-06
-4.83902e-06
3.28372e-06
-6.77639e-06
3.98412e-06
-8.52724e-06
4.18682e-06
-9.90706e-06
3.8332e-06
-1.08558e-05
3.0101e-06
-1.1362e-05
1.83852e-06
-1.13801e-05
4.0465e-07
-1.09486e-05
-1.11341e-06
-1.00543e-05
-2.67792e-06
-8.64406e-06
-4.15935e-06
-6.69677e-06
-5.30351e-06
-4.30059e-06
-5.70315e-06
-1.84354e-06
-4.82214e-06
-9.61409e-08
-2.39875e-06
2.8708e-07
4.6135e-07
1.23238e-06
-4.83667e-07
3.84521e-07
-1.49643e-06
1.45613e-06
-2.97605e-06
2.77616e-06
-4.8441e-06
4.17064e-06
-6.86674e-06
5.30636e-06
-8.75223e-06
5.86962e-06
-1.02964e-05
5.73099e-06
-1.14452e-05
4.98201e-06
-1.2221e-05
3.78593e-06
-1.26565e-05
2.27401e-06
-1.274e-05
4.88141e-07
-1.25203e-05
-1.33308e-06
-1.19656e-05
-3.23269e-06
-1.09747e-05
-5.15026e-06
-9.41806e-06
-6.8601e-06
-7.17364e-06
-7.94757e-06
-4.28345e-06
-7.71233e-06
-1.34805e-06
-5.33415e-06
1.15574e-07
-1.00228e-06
1.34796e-06
-8.16335e-07
1.20086e-06
-2.2386e-06
2.8784e-06
-4.01861e-06
4.55616e-06
-5.9837e-06
6.13574e-06
-7.87095e-06
7.1936e-06
-9.45876e-06
7.45743e-06
-1.066e-05
6.93227e-06
-1.14925e-05
5.81443e-06
-1.20141e-05
4.30754e-06
-1.2296e-05
2.55592e-06
-1.24237e-05
6.15849e-07
-1.23941e-05
-1.36271e-06
-1.21947e-05
-3.43209e-06
-1.1745e-05
-5.59994e-06
-1.08599e-05
-7.74518e-06
-9.25563e-06
-9.55186e-06
-6.64466e-06
-1.03233e-05
-3.13534e-06
-8.84347e-06
-2.58517e-07
-3.8791e-06
1.08944e-06
-1.02109e-06
2.22194e-06
-2.63089e-06
4.4882e-06
-4.44095e-06
6.36623e-06
-6.23728e-06
7.93206e-06
-7.80209e-06
8.75842e-06
-8.99764e-06
8.65298e-06
-9.80804e-06
7.74267e-06
-1.02914e-05
6.29779e-06
-1.05351e-05
4.55126e-06
-1.0639e-05
2.65982e-06
-1.07228e-05
6.99592e-07
-1.07869e-05
-1.29859e-06
-1.08404e-05
-3.37861e-06
-1.08526e-05
-5.58773e-06
-1.0667e-05
-7.93072e-06
-9.95561e-06
-1.02633e-05
-8.23232e-06
-1.20466e-05
-5.10103e-06
-1.19748e-05
-1.12659e-06
-7.85355e-06
-3.71479e-08
-1.04019e-06
3.26213e-06
-2.60548e-06
6.05349e-06
-4.23609e-06
7.99684e-06
-5.72769e-06
9.42367e-06
-6.92125e-06
9.95197e-06
-7.74463e-06
9.47636e-06
-8.22452e-06
8.22256e-06
-8.44221e-06
6.51548e-06
-8.50001e-06
4.60906e-06
-8.4979e-06
2.65771e-06
-8.52324e-06
7.24939e-07
-8.60214e-06
-1.21969e-06
-8.75321e-06
-3.22755e-06
-8.98703e-06
-5.35391e-06
-9.24147e-06
-7.67628e-06
-9.27701e-06
-1.02277e-05
-8.57186e-06
-1.27518e-05
-6.38623e-06
-1.41604e-05
-2.35283e-06
-1.18869e-05
-2.38998e-06
-8.75513e-07
4.13765e-06
-2.21894e-06
7.39692e-06
-3.55564e-06
9.33354e-06
-4.70413e-06
1.05722e-05
-5.5604e-06
1.08082e-05
-6.09846e-06
1.00144e-05
-6.36676e-06
8.49085e-06
-6.45242e-06
6.60114e-06
-6.45275e-06
4.60939e-06
-6.44527e-06
2.65023e-06
-6.47126e-06
7.50931e-07
-6.55045e-06
-1.14051e-06
-6.70644e-06
-3.07156e-06
-6.97198e-06
-5.08837e-06
-7.36227e-06
-7.28598e-06
-7.77681e-06
-9.8132e-06
-7.79275e-06
-1.27358e-05
-6.59321e-06
-1.53599e-05
-3.48742e-06
-1.49927e-05
-5.8774e-06
-5.83964e-07
4.72161e-06
-1.59673e-06
8.40968e-06
-2.59459e-06
1.03314e-05
-3.41236e-06
1.13899e-05
-3.99066e-06
1.13865e-05
-4.33286e-06
1.03566e-05
-4.49223e-06
8.65022e-06
-4.54554e-06
6.65444e-06
-4.56715e-06
4.63101e-06
-4.60444e-06
2.68752e-06
-4.66949e-06
8.15974e-07
-4.76886e-06
-1.04114e-06
-4.91517e-06
-2.92524e-06
-5.14139e-06
-4.86215e-06
-5.50726e-06
-6.92011e-06
-6.02277e-06
-9.29768e-06
-6.45149e-06
-1.23071e-05
-6.03914e-06
-1.57723e-05
-3.85339e-06
-1.71785e-05
-9.7308e-06
-2.16833e-07
4.93844e-06
-8.47001e-07
9.03985e-06
-1.49678e-06
1.09812e-05
-2.01278e-06
1.19059e-05
-2.36395e-06
1.17377e-05
-2.57074e-06
1.05634e-05
-2.67917e-06
8.75866e-06
-2.7424e-06
6.71767e-06
-2.80661e-06
4.69522e-06
-2.89512e-06
2.77604e-06
-3.00983e-06
9.30682e-07
-3.14884e-06
-9.02125e-07
-3.31355e-06
-2.76053e-06
-3.5208e-06
-4.65491e-06
-3.83104e-06
-6.60987e-06
-4.33095e-06
-8.79777e-06
-4.95378e-06
-1.16843e-05
-5.07427e-06
-1.56518e-05
-3.52175e-06
-1.8731e-05
-1.32525e-05
1.52859e-07
4.78559e-06
-6.90759e-08
9.26178e-06
-3.91296e-07
1.13034e-05
-6.35984e-07
1.21506e-05
-7.86287e-07
1.1888e-05
-8.71672e-07
1.06488e-05
-9.31678e-07
8.81866e-06
-9.99079e-07
6.78507e-06
-1.09067e-06
4.7868e-06
-1.21312e-06
2.89849e-06
-1.36646e-06
1.08402e-06
-1.55097e-06
-7.17607e-07
-1.76508e-06
-2.54643e-06
-2.01071e-06
-4.40927e-06
-2.32336e-06
-6.29722e-06
-2.80839e-06
-8.31274e-06
-3.52371e-06
-1.09689e-05
-4.00678e-06
-1.51687e-05
-3.01153e-06
-1.97262e-05
-1.62641e-05
4.65293e-07
4.32029e-06
6.51057e-07
9.07602e-06
6.90468e-07
1.1264e-05
7.25387e-07
1.21157e-05
7.72397e-07
1.1841e-05
8.04123e-07
1.06171e-05
7.98262e-07
8.82452e-06
7.45797e-07
6.83754e-06
6.49215e-07
4.88339e-06
5.13078e-07
3.03462e-06
3.35225e-07
1.26187e-06
1.10805e-07
-4.93186e-07
-1.63735e-07
-2.27189e-06
-4.9359e-07
-4.07942e-06
-8.89881e-07
-5.90093e-06
-1.41016e-06
-7.79247e-06
-2.20584e-06
-1.01733e-05
-2.96697e-06
-1.44076e-05
-2.46823e-06
-2.0225e-05
-1.87323e-05
6.98555e-07
3.62174e-06
1.26237e-06
8.5122e-06
1.63793e-06
1.08884e-05
1.95939e-06
1.17942e-05
2.23192e-06
1.15685e-05
2.41989e-06
1.04291e-05
2.51055e-06
8.73387e-06
2.51392e-06
6.83417e-06
2.44651e-06
4.95079e-06
2.31904e-06
3.1621e-06
2.12761e-06
1.4533e-06
1.85819e-06
-2.23764e-07
1.50978e-06
-1.92348e-06
1.07693e-06
-3.64656e-06
5.53492e-07
-5.37749e-06
-1.20855e-07
-7.11812e-06
-9.98166e-07
-9.29595e-06
-1.96444e-06
-1.34413e-05
-1.947e-06
-2.02424e-05
-2.06793e-05
8.00337e-07
2.8214e-06
1.68353e-06
7.62901e-06
2.39176e-06
1.01802e-05
3.01441e-06
1.11716e-05
3.55438e-06
1.10285e-05
3.96297e-06
1.00205e-05
4.21892e-06
8.47791e-06
4.33463e-06
6.71846e-06
4.33511e-06
4.95031e-06
4.23835e-06
3.25886e-06
4.04381e-06
1.64784e-06
3.73095e-06
8.90938e-08
3.30074e-06
-1.49327e-06
2.73865e-06
-3.08447e-06
2.04317e-06
-4.68201e-06
1.22703e-06
-6.30198e-06
1.90751e-07
-8.25967e-06
-1.02618e-06
-1.22244e-05
-1.45986e-06
-1.98087e-05
-2.21392e-05
7.37312e-07
2.08409e-06
1.80815e-06
6.55817e-06
2.79977e-06
9.18858e-06
3.74154e-06
1.02298e-05
4.60052e-06
1.01695e-05
5.30608e-06
9.31495e-06
5.81375e-06
7.97025e-06
6.12367e-06
6.40854e-06
6.25776e-06
4.81622e-06
6.23694e-06
3.27968e-06
6.0632e-06
1.82158e-06
5.72598e-06
4.26319e-07
5.20496e-06
-9.72259e-07
4.49987e-06
-2.37937e-06
3.60451e-06
-3.78665e-06
2.5489e-06
-5.24637e-06
1.28233e-06
-6.9931e-06
-2.17182e-07
-1.07249e-05
-9.59943e-07
-1.9066e-05
-2.30991e-05
5.24184e-07
1.55991e-06
1.61702e-06
5.46534e-06
2.88365e-06
7.92195e-06
4.17985e-06
8.93362e-06
5.4094e-06
8.93998e-06
6.47054e-06
8.25382e-06
7.29255e-06
7.14824e-06
7.85858e-06
5.84252e-06
8.18014e-06
4.49465e-06
8.2755e-06
3.18432e-06
8.15177e-06
1.94531e-06
7.80732e-06
7.70773e-07
7.19926e-06
-3.64204e-07
6.34451e-06
-1.52462e-06
5.23162e-06
-2.67376e-06
3.9067e-06
-3.92145e-06
2.42635e-06
-5.51276e-06
8.43598e-07
-9.14212e-06
-1.98267e-07
-1.80241e-05
-2.32974e-05
1.20779e-07
1.43913e-06
9.21923e-07
4.66419e-06
2.31395e-06
6.52992e-06
3.95965e-06
7.28792e-06
5.62313e-06
7.27649e-06
7.1184e-06
6.75854e-06
8.33785e-06
5.92879e-06
9.24744e-06
4.93293e-06
9.83956e-06
3.90253e-06
1.01266e-05
2.89724e-06
1.01131e-05
1.95881e-06
9.80548e-06
1.07843e-06
9.17123e-06
2.70047e-07
8.21166e-06
-5.65051e-07
6.93513e-06
-1.39723e-06
5.39194e-06
-2.37825e-06
3.73844e-06
-3.85926e-06
2.13396e-06
-7.53764e-06
6.11156e-07
-1.65013e-05
-2.26862e-05
-4.95918e-07
1.93504e-06
1.48723e-07
4.01955e-06
1.59538e-06
5.08326e-06
3.54989e-06
5.33341e-06
5.61498e-06
5.21141e-06
7.51082e-06
4.8627e-06
9.0964e-06
4.34321e-06
1.03269e-05
3.70241e-06
1.11803e-05
3.04911e-06
1.16734e-05
2.40421e-06
1.18095e-05
1.82271e-06
1.16095e-05
1.27842e-06
1.10877e-05
7.91803e-07
1.02321e-05
2.90612e-07
9.04936e-06
-2.1454e-07
7.60134e-06
-9.30234e-07
6.07842e-06
-2.33633e-06
4.35205e-06
-5.81127e-06
2.01161e-06
-1.41609e-05
-2.06746e-05
-4.15806e-06
6.09311e-06
-3.64209e-06
3.50358e-06
-1.32474e-06
2.76591e-06
1.37495e-06
2.63372e-06
4.02009e-06
2.56627e-06
6.47548e-06
2.40731e-06
8.63372e-06
2.18497e-06
1.04344e-05
1.90173e-06
1.18577e-05
1.62587e-06
1.2927e-05
1.33484e-06
1.36578e-05
1.0919e-06
1.40924e-05
8.43812e-07
1.42224e-05
6.61891e-07
1.40632e-05
4.49716e-07
1.35945e-05
2.54192e-07
1.28314e-05
-1.67136e-07
1.17799e-05
-1.28477e-06
1.00502e-05
-4.08162e-06
5.61219e-06
-9.72286e-06
-1.50624e-05
6.09311e-06
9.59668e-06
1.23626e-05
1.49963e-05
1.75626e-05
1.99699e-05
2.21549e-05
2.40566e-05
2.56825e-05
2.70173e-05
2.81092e-05
2.8953e-05
2.96149e-05
3.00646e-05
3.03188e-05
3.01517e-05
2.88669e-05
2.47853e-05
1.50624e-05
)
;

boundaryField
{
    movingWall
    {
        type            calculated;
        value           uniform 0;
    }
    fixedWalls
    {
        type            calculated;
        value           uniform 0;
    }
    frontAndBack
    {
        type            empty;
        value           nonuniform List<scalar> 0();
    }
}


// ************************************************************************* //
