/*--------------------------------*- C++ -*----------------------------------*\
| =========                 |                                                 |
| \\      /  F ield         | OpenFOAM: The Open Source CFD Toolbox           |
|  \\    /   O peration     | Version:  2212                                  |
|   \\  /    A nd           | Website:  www.openfoam.com                      |
|    \\/     M anipulation  |                                                 |
\*---------------------------------------------------------------------------*/
FoamFile
{
    version     2.0;
    format      ascii;
    arch        "LSB;label=32;scalar=64";
    class       volScalarField;
    location    "0.875";
    object      p;
}
// * * * * * * * * * * * * * * * * * * * * * * * * * * * * * * * * * * * * * //

dimensions      [0 2 -2 0 0 0 0];

internalField   nonuniform List<scalar> 
400
(
3.73438e-06
-0.00582365
-0.0129616
-0.018414
-0.0204317
-0.0182381
-0.0117736
-0.00148343
0.0118377
0.0271496
0.0432451
0.0588239
0.0725796
0.0833095
0.0900538
0.0922679
0.0900267
0.0842447
0.0768815
0.0710679
0.00578244
-0.000216826
-0.00580285
-0.00954167
-0.0105982
-0.00843213
-0.00296945
0.00547455
0.0163033
0.0287121
0.0417503
0.0543867
0.0655873
0.0744109
0.0801212
0.0823167
0.0810781
0.0770556
0.0712749
0.0653186
0.0133367
0.00503501
-0.000994214
-0.00442222
-0.0052722
-0.00326331
0.00160288
0.00902806
0.0185025
0.0293497
0.0407659
0.0518702
0.0617692
0.0696372
0.0748079
0.076879
0.0758424
0.0720866
0.0658061
0.0575361
0.020141
0.00869728
0.00122698
-0.00266762
-0.00372138
-0.0018847
0.00273181
0.00978506
0.0187808
0.0290955
0.0399924
0.0506545
0.0602335
0.0679167
0.073004
0.0750023
0.0737666
0.0694568
0.0616035
0.050103
0.0245035
0.00977445
0.000590939
-0.00398593
-0.00530144
-0.0035067
0.00117527
0.00833505
0.0174624
0.0279495
0.0390855
0.0500704
0.0600494
0.0681656
0.073627
0.0757984
0.0743696
0.0692904
0.059526
0.0445375
0.0251793
0.00715134
-0.00380083
-0.00905614
-0.0105112
-0.00849925
-0.00335623
0.00442993
0.0143138
0.0256795
0.0378143
0.0499038
0.0610486
0.0703036
0.0767351
0.0795174
0.0781395
0.0723341
0.0605397
0.0418904
0.0210948
-0.000261139
-0.0129333
-0.0187082
-0.0200288
-0.0174131
-0.0113177
-0.00231913
0.00899093
0.0219767
0.0359101
0.0499449
0.0631127
0.0743458
0.0825224
0.08657
0.0857212
0.0794476
0.0656208
0.0430721
0.011144
-0.0136171
-0.027874
-0.0338532
-0.0346025
-0.0308565
-0.023212
-0.0123445
0.00110542
0.0164844
0.0330531
0.0499342
0.0660839
0.0802904
0.0912012
0.0974305
0.0978708
0.0916365
0.0758968
0.0491169
-0.00596606
-0.0342655
-0.0498691
-0.0555476
-0.0550891
-0.0495136
-0.0395926
-0.0261125
-0.00975643
0.00882358
0.0289015
0.049594
0.0697981
0.0881552
0.103048
0.112702
0.115551
0.110192
0.0928348
0.061412
-0.0318561
-0.0638752
-0.080416
-0.0850063
-0.0824192
-0.0740774
-0.0609799
-0.0440357
-0.0239507
-0.0013362
0.0231462
0.0486616
0.0740962
0.0979729
0.118397
0.133126
0.139989
0.136819
0.118441
0.0819344
-0.0686664
-0.104602
-0.121344
-0.123589
-0.117515
-0.105126
-0.0877173
-0.0663245
-0.0416361
-0.0141548
0.0156063
0.0469539
0.0788565
0.109794
0.137625
0.159586
0.172728
0.173779
0.155521
0.113572
-0.119401
-0.159356
-0.174914
-0.172756
-0.161147
-0.142928
-0.119758
-0.092776
-0.0625764
-0.0294467
0.00637406
0.0444744
0.084056
0.123704
0.161137
0.193087
0.215669
0.224078
0.208051
0.160633
-0.188627
-0.232241
-0.243937
-0.233947
-0.213693
-0.187153
-0.156371
-0.1225
-0.0858967
-0.046471
-0.00401327
0.04154
0.0898433
0.13983
0.18932
0.23469
0.271076
0.291665
0.281744
0.229777
-0.283973
-0.329303
-0.33183
-0.308278
-0.274707
-0.236438
-0.195763
-0.153609
-0.109839
-0.0637437
-0.0144364
0.038865
0.0965558
0.158278
0.222376
0.285289
0.341399
0.381577
0.384916
0.331836
-0.419317
-0.459669
-0.442348
-0.39579
-0.342127
-0.287737
-0.234614
-0.182928
-0.131607
-0.078983
-0.023212
0.0374773
0.104555
0.17884
0.259863
0.344972
0.428618
0.499702
0.529677
0.485393
-0.620529
-0.636741
-0.578675
-0.49419
-0.411238
-0.335656
-0.267778
-0.205975
-0.147534
-0.0893804
-0.0284235
0.0383508
0.113809
0.200474
0.299978
0.412028
0.533032
0.651777
0.732774
0.722398
-0.935921
-0.878512
-0.741739
-0.597946
-0.47439
-0.372656
-0.288865
-0.21776
-0.15395
-0.0924609
-0.0287144
0.0416986
0.123266
0.220721
0.338929
0.482158
0.652
0.841344
1.01527
1.09751
-1.47642
-1.20663
-0.9205
-0.691385
-0.517302
-0.387541
-0.290058
-0.213334
-0.148121
-0.0872123
-0.0245745
0.0454606
0.12894
0.233074
0.367106
0.542681
0.771296
1.05932
1.40329
1.73014
-2.53965
-1.63054
-1.04443
-0.710955
-0.495747
-0.35209
-0.254527
-0.18358
-0.126166
-0.0735919
-0.0192659
0.04279
0.119215
0.218786
0.354815
0.547987
0.826396
1.23658
1.91168
2.9242
-4.36666
-2.04463
-0.973539
-0.563177
-0.357843
-0.240143
-0.170116
-0.12378
-0.087478
-0.0535071
-0.0166514
0.0276637
0.0846105
0.161733
0.272414
0.442102
0.718222
1.22571
2.41104
4.84853
)
;

boundaryField
{
    movingWall
    {
        type            zeroGradient;
    }
    fixedWalls
    {
        type            zeroGradient;
    }
    frontAndBack
    {
        type            empty;
    }
}


// ************************************************************************* //
