/*--------------------------------*- C++ -*----------------------------------*\
| =========                 |                                                 |
| \\      /  F ield         | OpenFOAM: The Open Source CFD Toolbox           |
|  \\    /   O peration     | Version:  2212                                  |
|   \\  /    A nd           | Website:  www.openfoam.com                      |
|    \\/     M anipulation  |                                                 |
\*---------------------------------------------------------------------------*/
FoamFile
{
    version     2.0;
    format      ascii;
    arch        "LSB;label=32;scalar=64";
    class       volScalarField;
    location    "2.345";
    object      p;
}
// * * * * * * * * * * * * * * * * * * * * * * * * * * * * * * * * * * * * * //

dimensions      [0 2 -2 0 0 0 0];

internalField   nonuniform List<scalar> 
400
(
2.01991e-06
-0.00582654
-0.0129648
-0.0184173
-0.020435
-0.0182414
-0.0117769
-0.00148662
0.0118346
0.0271464
0.0432418
0.0588205
0.0725762
0.0833061
0.0900505
0.0922647
0.0900236
0.0842416
0.0768783
0.0710647
0.00577951
-0.000219908
-0.00580597
-0.00954483
-0.0106015
-0.00843544
-0.00297278
0.00547126
0.0163001
0.028709
0.0417472
0.0543834
0.065584
0.0744075
0.0801179
0.0823134
0.0810749
0.0770524
0.0712716
0.0653153
0.0133335
0.00503183
-0.000997358
-0.00442535
-0.00527536
-0.00326656
0.00159955
0.0090247
0.0184992
0.0293465
0.0407628
0.0518671
0.061766
0.0696339
0.0748046
0.0768756
0.0758391
0.0720834
0.0658029
0.0575329
0.0201377
0.00869403
0.00122376
-0.00267077
-0.0037245
-0.00188786
0.00272855
0.0097817
0.0187775
0.0290922
0.0399892
0.0506514
0.0602304
0.0679135
0.0730007
0.0749989
0.0737632
0.0694535
0.0616003
0.0500998
0.0245003
0.00977116
0.000587636
-0.00398917
-0.00530458
-0.0035098
0.00117212
0.00833177
0.0174591
0.0279461
0.0390821
0.0500672
0.0600463
0.0681625
0.0736238
0.0757951
0.0743663
0.069287
0.0595227
0.0445342
0.0251761
0.00714808
-0.00380417
-0.00905948
-0.0105145
-0.00850239
-0.00335932
0.00442678
0.0143106
0.0256761
0.0378109
0.0499004
0.0610453
0.0703005
0.076732
0.0795142
0.0781362
0.0723308
0.0605364
0.0418871
0.0210917
-0.000264343
-0.0129367
-0.0187116
-0.0200322
-0.0174163
-0.0113208
-0.00232221
0.00898778
0.0219734
0.0359068
0.0499415
0.0631093
0.0743425
0.0825192
0.0865668
0.085718
0.0794443
0.0656175
0.0430688
0.0111408
-0.0136202
-0.0278772
-0.0338565
-0.0346059
-0.0308599
-0.0232153
-0.0123476
0.00110233
0.0164813
0.0330498
0.0499308
0.0660805
0.0802871
0.091198
0.0974273
0.0978676
0.0916334
0.0758935
0.0491136
-0.00596933
-0.0342686
-0.0498722
-0.0555508
-0.0550925
-0.049517
-0.039596
-0.0261158
-0.00975956
0.00882049
0.0288984
0.0495908
0.0697948
0.0881518
0.103045
0.112698
0.115548
0.110189
0.0928316
0.0614087
-0.0318595
-0.0638784
-0.0804191
-0.0850094
-0.0824224
-0.0740807
-0.0609834
-0.0440391
-0.023954
-0.00133936
0.0231431
0.0486585
0.074093
0.0979696
0.118393
0.133123
0.139986
0.136815
0.118438
0.0819312
-0.0686698
-0.104606
-0.121347
-0.123592
-0.117518
-0.105129
-0.0877207
-0.066328
-0.0416395
-0.0141581
0.0156031
0.0469508
0.0788533
0.109791
0.137621
0.159583
0.172724
0.173776
0.155518
0.113568
-0.119405
-0.159359
-0.174917
-0.172759
-0.16115
-0.142931
-0.119761
-0.0927793
-0.0625798
-0.02945
0.00637077
0.0444712
0.0840528
0.123701
0.161134
0.193084
0.215666
0.224075
0.208048
0.16063
-0.188631
-0.232244
-0.243941
-0.23395
-0.213696
-0.187156
-0.156374
-0.122503
-0.0859
-0.0464743
-0.00401664
0.0415367
0.08984
0.139827
0.189317
0.234687
0.271072
0.291662
0.281741
0.229774
-0.283976
-0.329307
-0.331833
-0.308282
-0.27471
-0.236441
-0.195766
-0.153612
-0.109842
-0.0637469
-0.0144397
0.0388616
0.0965525
0.158275
0.222372
0.285286
0.341395
0.381573
0.384912
0.331832
-0.41932
-0.459672
-0.442352
-0.395793
-0.34213
-0.287741
-0.234617
-0.182931
-0.13161
-0.0789862
-0.0232153
0.037474
0.104552
0.178836
0.25986
0.344969
0.428615
0.499699
0.529674
0.48539
-0.620533
-0.636745
-0.578678
-0.494194
-0.411241
-0.335659
-0.267781
-0.205978
-0.147537
-0.0893836
-0.0284267
0.0383476
0.113806
0.200471
0.299974
0.412024
0.533029
0.651774
0.732771
0.722395
-0.935924
-0.878515
-0.741742
-0.597949
-0.474393
-0.372659
-0.288869
-0.217763
-0.153954
-0.0924642
-0.0287176
0.0416954
0.123263
0.220718
0.338926
0.482154
0.651996
0.841341
1.01527
1.0975
-1.47642
-1.20663
-0.920503
-0.691388
-0.517305
-0.387544
-0.290061
-0.213337
-0.148124
-0.0872156
-0.0245777
0.0454573
0.128937
0.233071
0.367103
0.542678
0.771293
1.05932
1.40329
1.73014
-2.53965
-1.63055
-1.04444
-0.710958
-0.49575
-0.352093
-0.25453
-0.183583
-0.126169
-0.0735952
-0.0192692
0.0427867
0.119212
0.218782
0.354812
0.547984
0.826393
1.23658
1.91168
2.92419
-4.36666
-2.04463
-0.973542
-0.56318
-0.357846
-0.240146
-0.170119
-0.123783
-0.0874812
-0.0535103
-0.0166546
0.0276604
0.0846072
0.161729
0.272411
0.442099
0.718219
1.22571
2.41103
4.84853
)
;

boundaryField
{
    movingWall
    {
        type            zeroGradient;
    }
    fixedWalls
    {
        type            zeroGradient;
    }
    frontAndBack
    {
        type            empty;
    }
}


// ************************************************************************* //
