/*--------------------------------*- C++ -*----------------------------------*\
| =========                 |                                                 |
| \\      /  F ield         | OpenFOAM: The Open Source CFD Toolbox           |
|  \\    /   O peration     | Version:  2212                                  |
|   \\  /    A nd           | Website:  www.openfoam.com                      |
|    \\/     M anipulation  |                                                 |
\*---------------------------------------------------------------------------*/
FoamFile
{
    version     2.0;
    format      ascii;
    arch        "LSB;label=32;scalar=64";
    class       surfaceScalarField;
    location    "2.675";
    object      phi;
}
// * * * * * * * * * * * * * * * * * * * * * * * * * * * * * * * * * * * * * //

dimensions      [0 3 -1 0 0 0 0];

oriented        oriented;

internalField   nonuniform List<scalar> 
760
(
1.37511e-07
-1.37511e-07
2.54576e-07
-1.17066e-07
2.62711e-07
-8.13507e-09
1.39516e-07
1.23194e-07
-1.49684e-07
2.892e-07
-6.62521e-07
5.12836e-07
-1.42906e-06
7.66536e-07
-2.37481e-06
9.45752e-07
-3.31683e-06
9.42017e-07
-4.03548e-06
7.18658e-07
-4.36465e-06
3.29165e-07
-4.20897e-06
-1.55674e-07
-3.50402e-06
-7.04951e-07
-2.35525e-06
-1.14878e-06
-9.80836e-07
-1.37441e-06
2.60352e-07
-1.24119e-06
9.95502e-07
-7.3515e-07
9.69579e-07
2.5923e-08
4.37171e-07
5.32407e-07
4.37171e-07
9.55537e-08
-2.33065e-07
2.42362e-08
-4.57481e-08
-3.35267e-07
3.51368e-07
-1.07064e-06
8.58565e-07
-2.22808e-06
1.44664e-06
-3.74252e-06
2.02728e-06
-5.3919e-06
2.41591e-06
-6.88327e-06
2.43712e-06
-7.99231e-06
2.05106e-06
-8.60239e-06
1.32874e-06
-8.66299e-06
3.89763e-07
-8.14634e-06
-6.72323e-07
-7.08286e-06
-1.76843e-06
-5.50231e-06
-2.72932e-06
-3.54226e-06
-3.33446e-06
-1.49597e-06
-3.28748e-06
1.22433e-07
-2.35355e-06
8.01806e-07
-6.53451e-07
5.00089e-07
8.34124e-07
9.3726e-07
-1.44172e-07
-8.8893e-08
-6.37438e-07
4.47517e-07
-1.57239e-06
1.28632e-06
-2.99331e-06
2.27948e-06
-4.79985e-06
3.25319e-06
-6.72572e-06
3.95315e-06
-8.47068e-06
4.16086e-06
-9.84851e-06
3.81496e-06
-1.07972e-05
2.99972e-06
-1.13044e-05
1.83593e-06
-1.13253e-05
4.10706e-07
-1.08971e-05
-1.10054e-06
-1.00078e-05
-2.65772e-06
-8.60456e-06
-4.13256e-06
-6.66644e-06
-5.27259e-06
-4.28168e-06
-5.67224e-06
-1.8363e-06
-4.79894e-06
-9.72949e-08
-2.39245e-06
2.85713e-07
4.51116e-07
1.22297e-06
-4.80287e-07
3.91394e-07
-1.4842e-06
1.45143e-06
-2.94952e-06
2.75164e-06
-4.8024e-06
4.13237e-06
-6.81412e-06
5.26491e-06
-8.69489e-06
5.83391e-06
-1.02387e-05
5.7047e-06
-1.13885e-05
4.9647e-06
-1.21654e-05
3.77664e-06
-1.26018e-05
2.27233e-06
-1.26864e-05
4.95345e-07
-1.24679e-05
-1.31908e-06
-1.19154e-05
-3.21024e-06
-1.09283e-05
-5.11962e-06
-9.37776e-06
-6.82313e-06
-7.14194e-06
-7.90806e-06
-4.26356e-06
-7.67732e-06
-1.34224e-06
-5.31377e-06
1.1496e-07
-1.00608e-06
1.33793e-06
-8.07852e-07
1.19925e-06
-2.21627e-06
2.85985e-06
-3.98142e-06
4.51679e-06
-5.93552e-06
6.08646e-06
-7.81832e-06
7.14771e-06
-9.40687e-06
7.42246e-06
-1.06108e-05
6.90865e-06
-1.14457e-05
5.79962e-06
-1.19689e-05
4.29984e-06
-1.22513e-05
2.55474e-06
-1.2378e-05
6.2201e-07
-1.23478e-05
-1.34928e-06
-1.21485e-05
-3.40957e-06
-1.16999e-05
-5.56824e-06
-1.08173e-05
-7.70566e-06
-9.21778e-06
-9.50761e-06
-6.61558e-06
-1.02795e-05
-3.12045e-06
-8.80891e-06
-2.57765e-07
-3.86876e-06
1.08017e-06
-1.00946e-06
2.20871e-06
-2.6045e-06
4.45489e-06
-4.40239e-06
6.31467e-06
-6.19268e-06
7.87676e-06
-7.75761e-06
8.71264e-06
-8.95677e-06
8.62162e-06
-9.77116e-06
7.72305e-06
-1.02574e-05
6.28582e-06
-1.05021e-05
4.54462e-06
-1.06053e-05
2.65785e-06
-1.06866e-05
7.03308e-07
-1.07486e-05
-1.28726e-06
-1.08005e-05
-3.35764e-06
-1.08123e-05
-5.55646e-06
-1.06276e-05
-7.89038e-06
-9.91819e-06
-1.0217e-05
-8.19929e-06
-1.19984e-05
-5.0776e-06
-1.19306e-05
-1.12132e-06
-7.82505e-06
-4.11499e-08
-1.02832e-06
3.23703e-06
-2.58061e-06
6.00719e-06
-4.20285e-06
7.93691e-06
-5.69176e-06
9.36568e-06
-6.88772e-06
9.9086e-06
-7.71575e-06
9.44965e-06
-8.19986e-06
8.20715e-06
-8.41999e-06
6.50595e-06
-8.47791e-06
4.60255e-06
-8.47364e-06
2.65358e-06
-8.4953e-06
7.24966e-07
-8.5703e-06
-1.21225e-06
-8.71838e-06
-3.20957e-06
-8.95106e-06
-5.32378e-06
-9.2063e-06
-7.63514e-06
-9.24371e-06
-1.01796e-05
-8.54097e-06
-1.27012e-05
-6.36075e-06
-1.41108e-05
-2.34152e-06
-1.18443e-05
-2.38267e-06
-8.65851e-07
4.10288e-06
-2.19913e-06
7.34047e-06
-3.53032e-06
9.2681e-06
-4.67822e-06
1.05136e-05
-5.53769e-06
1.07681e-05
-6.08042e-06
9.99238e-06
-6.3528e-06
8.47952e-06
-6.44073e-06
6.59388e-06
-6.44085e-06
4.60267e-06
-6.43087e-06
2.6436e-06
-6.45261e-06
7.46708e-07
-6.52661e-06
-1.13826e-06
-6.67785e-06
-3.05832e-06
-6.94071e-06
-5.06092e-06
-7.33136e-06
-7.24449e-06
-7.7486e-06
-9.76233e-06
-7.76753e-06
-1.26822e-05
-6.57102e-06
-1.53073e-05
-3.4708e-06
-1.49445e-05
-5.85346e-06
-5.77641e-07
4.68052e-06
-1.58326e-06
8.34608e-06
-2.57767e-06
1.02625e-05
-3.39566e-06
1.13316e-05
-3.97703e-06
1.13494e-05
-4.32351e-06
1.03389e-05
-4.4869e-06
8.64291e-06
-4.54277e-06
6.64976e-06
-4.56488e-06
4.62478e-06
-4.60041e-06
2.67912e-06
-4.66158e-06
8.0788e-07
-4.75545e-06
-1.04438e-06
-4.89573e-06
-2.91804e-06
-5.11726e-06
-4.8394e-06
-5.48185e-06
-6.87989e-06
-5.99992e-06
-9.24426e-06
-6.43242e-06
-1.22497e-05
-6.02237e-06
-1.57174e-05
-3.84037e-06
-1.71265e-05
-9.69383e-06
-2.14475e-07
4.89499e-06
-8.40192e-07
8.9718e-06
-1.48773e-06
1.091e-05
-2.00402e-06
1.18479e-05
-2.3575e-06
1.17029e-05
-2.56774e-06
1.05491e-05
-2.6799e-06
8.75507e-06
-2.74619e-06
6.71604e-06
-2.81188e-06
4.69047e-06
-2.89989e-06
2.76714e-06
-3.0119e-06
9.19884e-07
-3.1461e-06
-9.10177e-07
-3.30453e-06
-2.75961e-06
-3.50573e-06
-4.6382e-06
-3.81263e-06
-6.57299e-06
-4.31386e-06
-8.74303e-06
-4.94076e-06
-1.16228e-05
-5.06396e-06
-1.55942e-05
-3.51408e-06
-1.86764e-05
-1.32079e-05
1.51286e-07
4.74371e-06
-6.80832e-08
9.19117e-06
-3.88697e-07
1.12307e-05
-6.33342e-07
1.20925e-05
-7.84956e-07
1.18545e-05
-8.72698e-07
1.06368e-05
-9.35674e-07
8.81805e-06
-1.00613e-06
6.7865e-06
-1.09998e-06
4.78432e-06
-1.22327e-06
2.89042e-06
-1.3755e-06
1.07211e-06
-1.55679e-06
-7.28882e-07
-1.76561e-06
-2.55079e-06
-2.00512e-06
-4.39869e-06
-2.31302e-06
-6.26509e-06
-2.79753e-06
-8.25852e-06
-3.51622e-06
-1.09042e-05
-4.00185e-06
-1.51085e-05
-3.00783e-06
-1.96704e-05
-1.62157e-05
4.59886e-07
4.28382e-06
6.44803e-07
9.00625e-06
6.85332e-07
1.11901e-05
7.21601e-07
1.20562e-05
7.69437e-07
1.18067e-05
8.00867e-07
1.06054e-05
7.93439e-07
8.82548e-06
7.38673e-07
6.84127e-06
6.39552e-07
4.88344e-06
5.01665e-07
3.02831e-06
3.23495e-07
1.25028e-06
1.00682e-07
-5.0607e-07
-1.70813e-07
-2.2793e-06
-4.96297e-07
-4.07321e-06
-8.88052e-07
-5.87333e-06
-1.40645e-06
-7.74012e-06
-2.20428e-06
-1.01063e-05
-2.96725e-06
-1.43456e-05
-2.46828e-06
-2.01694e-05
-1.8684e-05
6.89457e-07
3.59437e-06
1.2495e-06
8.44621e-06
1.62515e-06
1.08145e-05
1.94889e-06
1.17325e-05
2.2247e-06
1.15309e-05
2.41515e-06
1.0415e-05
2.50641e-06
8.73421e-06
2.50867e-06
6.83901e-06
2.43915e-06
4.95296e-06
2.30929e-06
3.15817e-06
2.11589e-06
1.44368e-06
1.84557e-06
-2.3575e-07
1.49797e-06
-1.93169e-06
1.06739e-06
-3.64264e-06
5.47115e-07
-5.35305e-06
-1.24877e-07
-7.06813e-06
-1.00303e-06
-9.22817e-06
-1.97059e-06
-1.3378e-05
-1.94981e-06
-2.01902e-05
-2.06338e-05
7.88684e-07
2.80568e-06
1.6645e-06
7.57039e-06
2.37076e-06
1.01082e-05
2.99557e-06
1.11077e-05
3.53998e-06
1.09865e-05
3.95326e-06
1.00017e-05
4.21246e-06
8.47501e-06
4.32936e-06
6.72211e-06
4.32917e-06
4.95315e-06
4.23046e-06
3.25688e-06
4.0335e-06
1.64064e-06
3.7175e-06
8.02507e-08
3.28573e-06
-1.49992e-06
2.72326e-06
-3.08016e-06
2.02903e-06
-4.65883e-06
1.21503e-06
-6.25412e-06
1.79561e-07
-8.19271e-06
-1.03687e-06
-1.21616e-05
-1.46488e-06
-1.97621e-05
-2.20987e-05
7.25148e-07
2.08053e-06
1.78454e-06
6.511e-06
2.77129e-06
9.12147e-06
3.7135e-06
1.01655e-05
4.57653e-06
1.01234e-05
5.28776e-06
9.29047e-06
5.80059e-06
7.96218e-06
6.11383e-06
6.40887e-06
6.24892e-06
4.81806e-06
6.22687e-06
3.27894e-06
6.05014e-06
1.81737e-06
5.70962e-06
4.20771e-07
5.18481e-06
-9.75113e-07
4.47715e-06
-2.3725e-06
3.58134e-06
-3.76301e-06
2.52811e-06
-5.2009e-06
1.26512e-06
-6.92971e-06
-2.28075e-07
-1.06684e-05
-9.68013e-07
-1.90222e-05
-2.30667e-05
5.13975e-07
1.56656e-06
1.59158e-06
5.43339e-06
2.84841e-06
7.86464e-06
4.14012e-06
8.87377e-06
5.37048e-06
8.89307e-06
6.43594e-06
8.225e-06
7.26342e-06
7.1347e-06
7.83398e-06
5.83831e-06
8.158e-06
4.49404e-06
8.25335e-06
3.18358e-06
8.12747e-06
1.94326e-06
7.77954e-06
7.6869e-07
7.16728e-06
-3.62854e-07
6.30946e-06
-1.51468e-06
5.19608e-06
-2.64963e-06
3.87504e-06
-3.87986e-06
2.4008e-06
-5.45546e-06
8.22776e-07
-9.09037e-06
-2.08367e-07
-1.79911e-05
-2.32751e-05
1.14211e-07
1.45235e-06
8.98593e-07
4.64901e-06
2.27625e-06
6.48698e-06
3.91148e-06
7.23855e-06
5.57019e-06
7.23435e-06
7.06579e-06
6.72941e-06
8.2883e-06
5.91219e-06
9.20133e-06
4.92528e-06
9.79566e-06
3.8997e-06
1.0083e-05
2.89623e-06
1.00676e-05
1.95865e-06
9.75673e-06
1.07959e-06
9.11944e-06
2.74436e-07
8.15785e-06
-5.53084e-07
6.88311e-06
-1.3749e-06
5.34686e-06
-2.34361e-06
3.70531e-06
-3.81391e-06
2.11296e-06
-7.49802e-06
6.02811e-07
-1.64809e-05
-2.26723e-05
-4.9286e-07
1.94521e-06
1.35771e-07
4.02038e-06
1.55989e-06
5.06286e-06
3.49439e-06
5.30405e-06
5.54616e-06
5.18258e-06
7.4355e-06
4.84006e-06
9.01929e-06
4.3284e-06
1.02503e-05
3.69425e-06
1.11046e-05
3.04541e-06
1.15979e-05
2.40294e-06
1.17333e-05
1.82322e-06
1.15324e-05
1.28051e-06
1.10095e-05
7.97297e-07
1.01555e-05
3.00916e-07
8.98016e-06
-1.99516e-07
7.54421e-06
-9.07658e-07
6.03888e-06
-2.30859e-06
4.3297e-06
-5.78884e-06
2.00219e-06
-1.41534e-05
-2.06701e-05
-4.1553e-06
6.10051e-06
-3.64633e-06
3.51141e-06
-1.34636e-06
2.76289e-06
1.33313e-06
2.62456e-06
3.96101e-06
2.5547e-06
6.4044e-06
2.39667e-06
8.55586e-06
2.17695e-06
1.03538e-05
1.89635e-06
1.17764e-05
1.62279e-06
1.28461e-05
1.33322e-06
1.35776e-05
1.0917e-06
1.40134e-05
8.44686e-07
1.41462e-05
6.64569e-07
1.39933e-05
4.53749e-07
1.35334e-05
2.60463e-07
1.27815e-05
-1.55751e-07
1.17475e-05
-1.27467e-06
1.00353e-05
-4.07659e-06
5.60599e-06
-9.72411e-06
-1.50641e-05
6.10051e-06
9.61191e-06
1.23748e-05
1.49994e-05
1.75541e-05
1.99507e-05
2.21277e-05
2.4024e-05
2.56468e-05
2.698e-05
2.80717e-05
2.89164e-05
2.9581e-05
3.00348e-05
3.02952e-05
3.01395e-05
2.88648e-05
2.47882e-05
1.50641e-05
)
;

boundaryField
{
    movingWall
    {
        type            calculated;
        value           uniform 0;
    }
    fixedWalls
    {
        type            calculated;
        value           uniform 0;
    }
    frontAndBack
    {
        type            empty;
        value           nonuniform List<scalar> 0();
    }
}


// ************************************************************************* //
