/*--------------------------------*- C++ -*----------------------------------*\
| =========                 |                                                 |
| \\      /  F ield         | OpenFOAM: The Open Source CFD Toolbox           |
|  \\    /   O peration     | Version:  2212                                  |
|   \\  /    A nd           | Website:  www.openfoam.com                      |
|    \\/     M anipulation  |                                                 |
\*---------------------------------------------------------------------------*/
FoamFile
{
    version     2.0;
    format      ascii;
    arch        "LSB;label=32;scalar=64";
    class       volScalarField;
    location    "0.805";
    object      p;
}
// * * * * * * * * * * * * * * * * * * * * * * * * * * * * * * * * * * * * * //

dimensions      [0 2 -2 0 0 0 0];

internalField   nonuniform List<scalar> 
400
(
8.44565e-10
-5.60793e-05
-5.00633e-05
1.97707e-06
9.58794e-05
0.000237565
0.000441221
0.00072901
0.00112916
0.00166948
0.00236295
0.00318828
0.00407853
0.00486289
0.00536696
0.00547692
0.00522624
0.00477985
0.00441869
0.00428468
6.76964e-05
1.09813e-05
3.16897e-05
9.5177e-05
0.000193723
0.000333575
0.000527071
0.000792908
0.00115661
0.0016474
0.00228578
0.00306385
0.00390994
0.00468078
0.00518087
0.00528645
0.0050352
0.00459565
0.00425329
0.00414529
1.94718e-05
-4.87782e-05
-2.65469e-05
3.39985e-05
0.000120029
0.000235775
0.000391017
0.000602643
0.000897987
0.00131613
0.0018967
0.00265431
0.00354104
0.00438273
0.00494964
0.00508066
0.00480251
0.00431205
0.00389829
0.00376814
-0.000174486
-0.000254207
-0.000239701
-0.000195547
-0.000139108
-6.95533e-05
1.90326e-05
0.000140437
0.000321799
0.000611641
0.00107595
0.00176056
0.00267442
0.00362192
0.00434083
0.0046057
0.00437908
0.00385247
0.00331348
0.00310456
-0.000545926
-0.000635156
-0.000637281
-0.000623775
-0.00061555
-0.000616582
-0.000627672
-0.000643902
-0.000651327
-0.000612306
-0.000436129
8.28156e-06
0.000741947
0.00170607
0.00268013
0.00336823
0.00352611
0.00318174
0.00260584
0.00208723
-0.00110576
-0.00120423
-0.00123294
-0.00126592
-0.00132767
-0.00143009
-0.00158725
-0.00181685
-0.00214946
-0.00261791
-0.00317117
-0.00356397
-0.00344972
-0.00281619
-0.00154782
3.1164e-05
0.00136695
0.00201698
0.00184923
0.000630824
-0.00184355
-0.00195176
-0.00201725
-0.00211375
-0.00227074
-0.00251346
-0.00288108
-0.00343777
-0.00430918
-0.00568997
-0.007644
-0.00974886
-0.0111147
-0.0111015
-0.00962101
-0.00688188
-0.0035194
-0.000607583
0.00049172
-0.00117487
-0.00273107
-0.00284909
-0.00295997
-0.00313562
-0.00341271
-0.00383637
-0.00448528
-0.00549775
-0.00713971
-0.00981601
-0.0136817
-0.0180395
-0.0213111
-0.0221915
-0.0205977
-0.016801
-0.0113686
-0.00564057
-0.00208728
-0.00212386
-0.00372645
-0.00385268
-0.00401277
-0.0042762
-0.0046884
-0.00531827
-0.00629195
-0.00783282
-0.0103434
-0.0143848
-0.0200867
-0.026429
-0.031238
-0.0328198
-0.0312111
-0.0269075
-0.0204135
-0.0126169
-0.0058694
-0.00223632
-0.00477918
-0.00490916
-0.00511344
-0.00545878
-0.00599872
-0.00682295
-0.00809699
-0.0101081
-0.0133356
-0.0183781
-0.0252529
-0.032727
-0.0382922
-0.0401809
-0.0385868
-0.0342851
-0.0279063
-0.0197068
-0.0109837
-0.00418234
-0.0058369
-0.00596307
-0.00619472
-0.0065965
-0.0072272
-0.00818822
-0.00966271
-0.0119608
-0.0155601
-0.0210019
-0.0282257
-0.0359928
-0.0417472
-0.0437871
-0.0422589
-0.0381193
-0.0323381
-0.0249371
-0.016404
-0.00825241
-0.00685308
-0.00696529
-0.00719465
-0.00760782
-0.00826619
-0.00927262
-0.0108032
-0.0131501
-0.0167323
-0.021992
-0.0288785
-0.0362199
-0.0417258
-0.0438462
-0.0424088
-0.03848
-0.0334195
-0.0272216
-0.0199569
-0.0119521
-0.00779542
-0.00788323
-0.00807073
-0.00843619
-0.00904492
-0.00999119
-0.0114357
-0.0136159
-0.0168669
-0.0215194
-0.0274729
-0.0337951
-0.0386598
-0.0406887
-0.0394974
-0.0359095
-0.0315846
-0.0265955
-0.0208131
-0.0133506
-0.00864939
-0.00869937
-0.00879612
-0.00904162
-0.00953196
-0.0103431
-0.011599
-0.013474
-0.0161962
-0.0199678
-0.024695
-0.0296947
-0.0336297
-0.0352939
-0.034477
-0.0314941
-0.027889
-0.0237754
-0.0194822
-0.0122269
-0.0094277
-0.00942069
-0.00938299
-0.00944568
-0.00975239
-0.0103697
-0.011384
-0.0129087
-0.0150766
-0.0179843
-0.0215456
-0.0252892
-0.0282963
-0.0296188
-0.0289725
-0.0265609
-0.02356
-0.0199664
-0.0173881
-0.00903776
-0.0101803
-0.0100759
-0.00979467
-0.00961179
-0.00969902
-0.0101111
-0.0108919
-0.0121061
-0.0138222
-0.0160703
-0.0187603
-0.0215536
-0.0238201
-0.0248194
-0.0242466
-0.022226
-0.0196238
-0.0163049
-0.0153234
-0.00314446
-0.0109362
-0.0107731
-0.0101595
-0.00964204
-0.00947151
-0.00968182
-0.0102631
-0.0112422
-0.0126488
-0.014475
-0.016629
-0.0188376
-0.0206494
-0.0214622
-0.0209593
-0.0191096
-0.0165643
-0.0131488
-0.0110317
0.0103485
-0.012698
-0.0116153
-0.0101046
-0.00923324
-0.00890751
-0.00902885
-0.00949812
-0.010349
-0.0115983
-0.0132177
-0.0151283
-0.0170794
-0.0187338
-0.0195394
-0.0191753
-0.0172687
-0.0140147
-0.00805016
0.00345936
0.0441081
-0.0116365
-0.0131879
-0.0108921
-0.00937664
-0.00870686
-0.00863775
-0.00899309
-0.00973564
-0.0109011
-0.0124288
-0.0142806
-0.0161779
-0.0178693
-0.0187169
-0.0183145
-0.0155118
-0.00899653
0.00680523
0.0417601
0.111986
-0.0292021
-0.0136054
-0.00794016
-0.00661919
-0.0064419
-0.00660518
-0.00712131
-0.00801044
-0.00933746
-0.0110024
-0.012983
-0.0150047
-0.0168351
-0.0177602
-0.0168183
-0.0114776
0.00284126
0.0366362
0.10412
0.208147
)
;

boundaryField
{
    movingWall
    {
        type            zeroGradient;
    }
    fixedWalls
    {
        type            zeroGradient;
    }
    frontAndBack
    {
        type            empty;
    }
}


// ************************************************************************* //
