/*--------------------------------*- C++ -*----------------------------------*\
| =========                 |                                                 |
| \\      /  F ield         | OpenFOAM: The Open Source CFD Toolbox           |
|  \\    /   O peration     | Version:  2212                                  |
|   \\  /    A nd           | Website:  www.openfoam.com                      |
|    \\/     M anipulation  |                                                 |
\*---------------------------------------------------------------------------*/
FoamFile
{
    version     2.0;
    format      ascii;
    arch        "LSB;label=32;scalar=64";
    class       volScalarField;
    location    "3.225";
    object      p;
}
// * * * * * * * * * * * * * * * * * * * * * * * * * * * * * * * * * * * * * //

dimensions      [0 2 -2 0 0 0 0];

internalField   nonuniform List<scalar> 
400
(
-8.62816e-09
-0.000147843
-0.000519117
-0.00104014
-0.00168184
-0.00241862
-0.00308958
-0.00349038
-0.00345366
-0.00282788
-0.00146506
0.000661446
0.00324982
0.00549813
0.00654782
0.00601093
0.00417177
0.00236952
0.00134214
0.00126561
0.000117022
-5.26898e-05
-0.0003601
-0.000737636
-0.00120679
-0.00183082
-0.00261748
-0.00341967
-0.00393039
-0.00378468
-0.00271525
-0.000735207
0.00173662
0.00399018
0.00517936
0.00486276
0.00330406
0.00161265
0.000837279
0.000914899
0.00052043
0.000261504
-6.79392e-05
-0.000535842
-0.0012963
-0.00248133
-0.00405385
-0.00574892
-0.00711469
-0.00763783
-0.00697845
-0.00521709
-0.00269629
-3.61533e-05
0.00194547
0.00261117
0.00194077
0.000761585
-0.000130794
-0.000142183
0.0011022
0.000707407
0.000184583
-0.000739379
-0.00234208
-0.0047237
-0.00766095
-0.0106732
-0.0131718
-0.0146056
-0.0146422
-0.013316
-0.0108354
-0.00764218
-0.00442297
-0.00191475
-0.000591112
-0.000434151
-0.00101617
-0.00164773
0.00148122
0.000901516
-3.89963e-05
-0.00184276
-0.00478105
-0.00877817
-0.0133339
-0.0177463
-0.0213704
-0.0237445
-0.02461
-0.0238485
-0.0215735
-0.0180597
-0.0137326
-0.00918975
-0.00521911
-0.00264598
-0.00192651
-0.00372132
0.00116186
0.000357673
-0.00118846
-0.00413106
-0.00861008
-0.0142437
-0.0202128
-0.0256731
-0.030017
-0.0329269
-0.0342753
-0.0339649
-0.0320681
-0.0287213
-0.0240546
-0.0182793
-0.0119869
-0.0065718
-0.00410052
-0.00619382
-0.000165593
-0.00120642
-0.00341991
-0.0074895
-0.013338
-0.02023
-0.0270987
-0.0330664
-0.0376356
-0.0406441
-0.0421019
-0.0420325
-0.0404977
-0.0375582
-0.0331803
-0.0272365
-0.0198353
-0.0122039
-0.0074972
-0.00745124
-0.00250302
-0.0037257
-0.00650954
-0.0114477
-0.0182413
-0.0258625
-0.0331094
-0.0391582
-0.0436534
-0.0465601
-0.0479738
-0.0479952
-0.0467031
-0.0441382
-0.0402391
-0.0347557
-0.027413
-0.0187136
-0.0113904
-0.00769858
-0.00548998
-0.00679333
-0.0099478
-0.0153983
-0.0226733
-0.0305633
-0.0378304
-0.0437423
-0.0480632
-0.0508374
-0.0521968
-0.0522571
-0.0510955
-0.0487643
-0.0452593
-0.0404004
-0.033748
-0.025114
-0.0161442
-0.00962715
-0.00858049
-0.00985712
-0.0131644
-0.0187853
-0.0261527
-0.033998
-0.0411114
-0.0468382
-0.0510114
-0.0537024
-0.055041
-0.0551248
-0.0540209
-0.0517963
-0.0485174
-0.0441481
-0.0383413
-0.030532
-0.021598
-0.0138077
-0.0112686
-0.0124467
-0.0157017
-0.0212104
-0.028381
-0.0359973
-0.0429099
-0.0484959
-0.0525977
-0.0552691
-0.0566172
-0.0567172
-0.0556243
-0.0534115
-0.0502061
-0.0461128
-0.0410326
-0.0342911
-0.0263597
-0.0185027
-0.0132698
-0.0142646
-0.0173021
-0.0224453
-0.0291841
-0.0364461
-0.0431657
-0.0487008
-0.0528305
-0.0555562
-0.0569464
-0.057057
-0.0559351
-0.0536546
-0.0503952
-0.0463744
-0.041799
-0.035958
-0.0291655
-0.0216795
-0.0145487
-0.0152169
-0.0178178
-0.0223815
-0.0285044
-0.0353228
-0.0418679
-0.0474408
-0.0517019
-0.0545616
-0.0560341
-0.0561531
-0.0549608
-0.0525531
-0.0491338
-0.0449843
-0.0406627
-0.035308
-0.029435
-0.022211
-0.0151931
-0.0154106
-0.0173155
-0.0210266
-0.0263388
-0.0326257
-0.0390033
-0.0446868
-0.0491834
-0.0522732
-0.0538936
-0.0540483
-0.0527659
-0.0501655
-0.0464937
-0.0421162
-0.0376527
-0.0323725
-0.0274773
-0.0197742
-0.0153259
-0.015046
-0.015988
-0.0185372
-0.0228173
-0.0284654
-0.0346642
-0.0405167
-0.0453481
-0.0487742
-0.0506273
-0.0508578
-0.0495065
-0.0466707
-0.0426625
-0.037897
-0.0330272
-0.0276287
-0.0238898
-0.0141831
-0.0150671
-0.0143644
-0.0140432
-0.0150879
-0.0181266
-0.023037
-0.0290416
-0.0351061
-0.0403597
-0.0442315
-0.0464299
-0.0468361
-0.045479
-0.0424287
-0.0380358
-0.0327372
-0.0272747
-0.0215731
-0.0181694
-0.0040167
-0.0145051
-0.0135021
-0.0116329
-0.0109837
-0.0127111
-0.0168783
-0.0227089
-0.0290178
-0.0347563
-0.0391694
-0.0418372
-0.0425451
-0.0412915
-0.0381164
-0.0333254
-0.0272899
-0.0207315
-0.0136825
-0.00742823
0.0154684
-0.0145069
-0.0126201
-0.00871807
-0.00637601
-0.00697648
-0.0105921
-0.0163531
-0.0229415
-0.0292006
-0.0342191
-0.0374705
-0.0386213
-0.0376215
-0.0344749
-0.0293259
-0.0221964
-0.0133036
-0.00154724
0.0155982
0.0561339
-0.0118016
-0.0118935
-0.00596601
-0.00213311
-0.00207709
-0.00551929
-0.0113858
-0.0182852
-0.0250311
-0.0306047
-0.0344487
-0.0361447
-0.0356005
-0.0325478
-0.0268347
-0.01766
-0.00380871
0.0193751
0.0594132
0.128746
-0.0295039
-0.0107624
-0.000947445
0.00262361
0.00202919
-0.00178487
-0.00792715
-0.0151386
-0.0222394
-0.0281867
-0.0323997
-0.0344385
-0.034173
-0.031189
-0.0248437
-0.0129529
0.00879369
0.0501234
0.121711
0.225092
)
;

boundaryField
{
    movingWall
    {
        type            zeroGradient;
    }
    fixedWalls
    {
        type            zeroGradient;
    }
    frontAndBack
    {
        type            empty;
    }
}


// ************************************************************************* //
