/*--------------------------------*- C++ -*----------------------------------*\
| =========                 |                                                 |
| \\      /  F ield         | OpenFOAM: The Open Source CFD Toolbox           |
|  \\    /   O peration     | Version:  2212                                  |
|   \\  /    A nd           | Website:  www.openfoam.com                      |
|    \\/     M anipulation  |                                                 |
\*---------------------------------------------------------------------------*/
FoamFile
{
    version     2.0;
    format      ascii;
    arch        "LSB;label=32;scalar=64";
    class       volScalarField;
    location    "1.035";
    object      p;
}
// * * * * * * * * * * * * * * * * * * * * * * * * * * * * * * * * * * * * * //

dimensions      [0 2 -2 0 0 0 0];

internalField   nonuniform List<scalar> 
400
(
2.09867e-09
-9.23016e-05
-0.000166601
-0.000244289
-0.000326947
-0.000397911
-0.000421487
-0.000343054
-9.48907e-05
0.000386012
0.00112909
0.00210253
0.00317936
0.00409052
0.00458501
0.00455386
0.00401271
0.00340359
0.00296727
0.00287217
0.000112099
1.59981e-05
-3.8616e-05
-9.76965e-05
-0.00016933
-0.000239469
-0.000280836
-0.000250238
-8.5155e-05
0.000286711
0.000916211
0.00179672
0.00281717
0.00372921
0.00425196
0.00424141
0.00378427
0.00318828
0.00280792
0.00275004
0.000142772
2.82238e-05
-2.38252e-05
-9.01399e-05
-0.00019084
-0.000320924
-0.000464674
-0.000586944
-0.000617381
-0.000448082
2.70051e-05
0.000839612
0.00190414
0.00295449
0.0036698
0.00383017
0.00347126
0.0028844
0.00239371
0.00228513
2.47002e-05
-0.000109218
-0.000173441
-0.000273079
-0.000442677
-0.000693364
-0.00103192
-0.00144654
-0.00187212
-0.00215685
-0.00209209
-0.00154782
-0.0005437
0.000720803
0.00191889
0.00268579
0.00282588
0.0024437
0.00183225
0.00148367
-0.00032667
-0.000478491
-0.000572179
-0.000734833
-0.00101782
-0.00146013
-0.00211732
-0.00304705
-0.00423687
-0.00548997
-0.00638003
-0.00647752
-0.00580712
-0.00436257
-0.0024165
-0.000439944
0.00101225
0.00156084
0.00126969
0.00023727
-0.000961913
-0.0011329
-0.00127729
-0.00153812
-0.00198955
-0.00271835
-0.00387119
-0.00563601
-0.00806796
-0.0108347
-0.0131805
-0.0143828
-0.0141895
-0.0126435
-0.00993744
-0.00650986
-0.00305775
-0.000519741
0.000237074
-0.00147539
-0.00188794
-0.00208055
-0.00229857
-0.00269614
-0.00337829
-0.00450111
-0.00633447
-0.00920813
-0.013179
-0.0176705
-0.0215476
-0.0238533
-0.0241892
-0.0226237
-0.0193971
-0.0148385
-0.00945786
-0.00445407
-0.00193496
-0.00324274
-0.00306584
-0.00328068
-0.00359076
-0.00415568
-0.00511288
-0.0066916
-0.00927495
-0.0132804
-0.0186723
-0.0245843
-0.0295343
-0.0324477
-0.0330177
-0.0314308
-0.0280504
-0.0231518
-0.0168818
-0.0100206
-0.0050774
-0.00372975
-0.00441613
-0.00464775
-0.00505333
-0.00578934
-0.00701474
-0.00901109
-0.0122269
-0.0170924
-0.0234566
-0.0302517
-0.0357715
-0.0389038
-0.0394832
-0.037812
-0.0344035
-0.0296492
-0.0235182
-0.016054
-0.00892579
-0.00446608
-0.00583453
-0.00606774
-0.00654932
-0.00742119
-0.00884438
-0.0111196
-0.0147054
-0.0199994
-0.026793
-0.0339745
-0.0397536
-0.0429917
-0.0435571
-0.0417848
-0.0383085
-0.033758
-0.0282063
-0.0212346
-0.0134812
-0.00698771
-0.00721832
-0.00742386
-0.00794072
-0.00887635
-0.010378
-0.0127342
-0.0163719
-0.0216453
-0.0283635
-0.0354939
-0.0412891
-0.0445847
-0.0451789
-0.0433458
-0.0397827
-0.0353863
-0.0305174
-0.024576
-0.0175899
-0.010557
-0.00846893
-0.00863289
-0.00911902
-0.0100198
-0.0114604
-0.0136988
-0.0170994
-0.0219715
-0.0281644
-0.0347813
-0.0403041
-0.043573
-0.0442432
-0.0424628
-0.0389077
-0.0346923
-0.030533
-0.025717
-0.0199493
-0.0131476
-0.00954389
-0.00964196
-0.0100299
-0.0107876
-0.0120401
-0.0139966
-0.0169398
-0.0211128
-0.0264186
-0.0321631
-0.0371172
-0.0401951
-0.0409769
-0.0393759
-0.0361143
-0.0322105
-0.0286738
-0.0247844
-0.0201651
-0.0136606
-0.0104298
-0.0104456
-0.0106623
-0.0111795
-0.0121361
-0.0137027
-0.016079
-0.0194306
-0.0237003
-0.0283968
-0.0325809
-0.0352958
-0.0360243
-0.0348491
-0.0320823
-0.0286574
-0.025605
-0.0223273
-0.0187666
-0.0120904
-0.0111514
-0.0110751
-0.0110534
-0.0112463
-0.0118428
-0.0129875
-0.0148118
-0.0174105
-0.0207343
-0.0244422
-0.0278503
-0.0301785
-0.0309254
-0.030035
-0.0277758
-0.0248538
-0.0221968
-0.0192199
-0.0169725
-0.0088478
-0.0117763
-0.0115793
-0.0112018
-0.010987
-0.0112139
-0.0119848
-0.0133709
-0.0154075
-0.0180327
-0.0209917
-0.0237873
-0.0257984
-0.0265537
-0.0259018
-0.0240668
-0.0215433
-0.0191204
-0.0162175
-0.0152814
-0.0030185
-0.01234
-0.0120549
-0.0112423
-0.0105359
-0.0104096
-0.0108778
-0.0119616
-0.0136438
-0.0158426
-0.018341
-0.0207593
-0.0225899
-0.0234114
-0.0229895
-0.021448
-0.0191021
-0.0165901
-0.0133885
-0.0110816
0.0106417
-0.0138633
-0.0126413
-0.0108097
-0.00968222
-0.00931433
-0.00963218
-0.0105859
-0.0121181
-0.0141417
-0.0164505
-0.0187397
-0.0205577
-0.0215379
-0.0213554
-0.0200304
-0.0175034
-0.0141031
-0.00806858
0.00391086
0.0449129
-0.0125919
-0.0138855
-0.0111087
-0.00926616
-0.00855185
-0.00872682
-0.00960936
-0.0110821
-0.0130749
-0.0153586
-0.0176917
-0.019605
-0.02079
-0.020756
-0.0193647
-0.0157787
-0.0087553
0.00736653
0.0428055
0.113327
-0.0301104
-0.0140813
-0.00789958
-0.00627372
-0.00609412
-0.0065511
-0.00761974
-0.00925325
-0.0114077
-0.0138249
-0.0162916
-0.0183676
-0.019766
-0.0198744
-0.0179556
-0.0117304
0.00323832
0.0375804
0.105481
0.209645
)
;

boundaryField
{
    movingWall
    {
        type            zeroGradient;
    }
    fixedWalls
    {
        type            zeroGradient;
    }
    frontAndBack
    {
        type            empty;
    }
}


// ************************************************************************* //
