/*--------------------------------*- C++ -*----------------------------------*\
| =========                 |                                                 |
| \\      /  F ield         | OpenFOAM: The Open Source CFD Toolbox           |
|  \\    /   O peration     | Version:  2212                                  |
|   \\  /    A nd           | Website:  www.openfoam.com                      |
|    \\/     M anipulation  |                                                 |
\*---------------------------------------------------------------------------*/
FoamFile
{
    version     2.0;
    format      ascii;
    arch        "LSB;label=32;scalar=64";
    class       volVectorField;
    location    "1.295";
    object      U;
}
// * * * * * * * * * * * * * * * * * * * * * * * * * * * * * * * * * * * * * //

dimensions      [0 1 -1 0 0 0 0];

internalField   nonuniform List<vector> 
400
(
(0.000384486 -0.000514671 0)
(0.000375614 -0.00022956 0)
(-0.000747866 1.89809e-05 0)
(-0.00256561 0.000251408 0)
(-0.00536921 0.000656677 0)
(-0.00971091 0.0013294 0)
(-0.0160911 0.00229072 0)
(-0.0246456 0.00343271 0)
(-0.0347318 0.00439762 0)
(-0.0446459 0.00459284 0)
(-0.0519466 0.00350379 0)
(-0.0543212 0.00115609 0)
(-0.0502322 -0.00172494 0)
(-0.039349 -0.00455152 0)
(-0.0239604 -0.00616796 0)
(-0.00697628 -0.00564101 0)
(0.00641506 -0.0032107 0)
(0.0116257 0.000800086 0)
(0.00837084 0.00309492 0)
(0.00246859 0.00243362 0)
(-0.000429496 -0.000213773 0)
(-0.00308922 0.00174398 0)
(-0.00841364 0.00325586 0)
(-0.0155226 0.00487323 0)
(-0.0250261 0.00728037 0)
(-0.0377851 0.0105976 0)
(-0.0540448 0.0143712 0)
(-0.0727847 0.0174837 0)
(-0.0914454 0.0182948 0)
(-0.106558 0.0153693 0)
(-0.115002 0.0084313 0)
(-0.114897 -0.00127668 0)
(-0.106002 -0.0117773 0)
(-0.0883244 -0.0212043 0)
(-0.0639948 -0.0266642 0)
(-0.0358004 -0.0254909 0)
(-0.00873 -0.0168004 0)
(0.00881139 -0.00274247 0)
(0.0102827 0.00815053 0)
(0.00355069 0.0082176 0)
(-0.00160834 0.00285337 0)
(-0.00765892 0.00835415 0)
(-0.0177421 0.0122456 0)
(-0.0302648 0.0165427 0)
(-0.0460148 0.0224232 0)
(-0.065769 0.0295106 0)
(-0.0891177 0.0361249 0)
(-0.114001 0.0397091 0)
(-0.137002 0.0376776 0)
(-0.154525 0.0286548 0)
(-0.164029 0.0134336 0)
(-0.164549 -0.00552082 0)
(-0.156271 -0.0256144 0)
(-0.138941 -0.0438526 0)
(-0.113089 -0.0560675 0)
(-0.0797208 -0.0574748 0)
(-0.0419813 -0.0439596 0)
(-0.00772752 -0.0170027 0)
(0.00706212 0.00870085 0)
(0.00348254 0.0141774 0)
(-0.00277377 0.0087036 0)
(-0.0120617 0.0191352 0)
(-0.0264627 0.0259172 0)
(-0.0436349 0.0334139 0)
(-0.0645083 0.0432039 0)
(-0.0897532 0.0540891 0)
(-0.118415 0.0629196 0)
(-0.147655 0.0656244 0)
(-0.173538 0.0589964 0)
(-0.192698 0.0426377 0)
(-0.203501 0.0189453 0)
(-0.205931 -0.00909954 0)
(-0.200529 -0.0388776 0)
(-0.186917 -0.0669698 0)
(-0.164082 -0.0888241 0)
(-0.130807 -0.0979697 0)
(-0.0870339 -0.0864381 0)
(-0.0370322 -0.0491673 0)
(0.000583458 -0.00100578 0)
(0.00412043 0.0183032 0)
(-0.00366239 0.0169531 0)
(-0.0154872 0.0334321 0)
(-0.0332016 0.0434431 0)
(-0.0538327 0.0544721 0)
(-0.0784367 0.0683893 0)
(-0.107502 0.0827584 0)
(-0.139327 0.0925353 0)
(-0.169995 0.0923174 0)
(-0.195119 0.0794563 0)
(-0.212327 0.0556219 0)
(-0.221768 0.0244739 0)
(-0.224694 -0.0112837 0)
(-0.222233 -0.0493141 0)
(-0.214043 -0.0865176 0)
(-0.19862 -0.119374 0)
(-0.172638 -0.14109 0)
(-0.132503 -0.14064 0)
(-0.0765108 -0.103624 0)
(-0.0134429 -0.0285367 0)
(0.00579323 0.0188759 0)
(-0.00407095 0.026817 0)
(-0.0173463 0.0501377 0)
(-0.0369665 0.0636104 0)
(-0.0594136 0.0782661 0)
(-0.0856409 0.0960082 0)
(-0.115636 0.11273 0)
(-0.146679 0.121551 0)
(-0.17403 0.116748 0)
(-0.193866 0.097366 0)
(-0.205744 0.0671637 0)
(-0.211615 0.030521 0)
(-0.213566 -0.0099451 0)
(-0.213034 -0.0521778 0)
(-0.209971 -0.0946977 0)
(-0.203805 -0.136262 0)
(-0.190063 -0.172124 0)
(-0.162358 -0.190723 0)
(-0.113955 -0.170104 0)
(-0.0436994 -0.086195 0)
(0.00461982 0.0110471 0)
(-0.00385538 0.0372082 0)
(-0.0172017 0.067802 0)
(-0.0369546 0.0847411 0)
(-0.0590572 0.102585 0)
(-0.0840894 0.123087 0)
(-0.111541 0.140496 0)
(-0.138122 0.146719 0)
(-0.159159 0.13657 0)
(-0.172153 0.110995 0)
(-0.178357 0.0754722 0)
(-0.18048 0.0350841 0)
(-0.180524 -0.00720776 0)
(-0.179977 -0.0496044 0)
(-0.179686 -0.0924394 0)
(-0.180483 -0.136769 0)
(-0.178864 -0.182143 0)
(-0.16718 -0.22063 0)
(-0.135866 -0.228449 0)
(-0.0793805 -0.163579 0)
(-0.00449771 -0.0109425 0)
(-0.00298268 0.0468515 0)
(-0.0149119 0.0847518 0)
(-0.0329257 0.104897 0)
(-0.0525185 0.125012 0)
(-0.0738464 0.146843 0)
(-0.0962842 0.163463 0)
(-0.116723 0.166245 0)
(-0.131318 0.150872 0)
(-0.138992 0.119898 0)
(-0.141894 0.080049 0)
(-0.142419 0.0368844 0)
(-0.141711 -0.00646775 0)
(-0.140646 -0.0483362 0)
(-0.140539 -0.0890876 0)
(-0.143459 -0.130713 0)
(-0.148743 -0.177318 0)
(-0.149888 -0.228353 0)
(-0.135918 -0.264549 0)
(-0.0991182 -0.233043 0)
(-0.0229875 -0.0563914 0)
(-0.00157712 0.0544827 0)
(-0.0107643 0.0992825 0)
(-0.0254424 0.122207 0)
(-0.0408923 0.143489 0)
(-0.0569149 0.165333 0)
(-0.0731499 0.180344 0)
(-0.0872761 0.179849 0)
(-0.0966873 0.160372 0)
(-0.101399 0.125542 0)
(-0.103577 0.0826784 0)
(-0.104745 0.0373886 0)
(-0.104999 -0.00738251 0)
(-0.104439 -0.0499164 0)
(-0.103913 -0.0892354 0)
(-0.106127 -0.126635 0)
(-0.113244 -0.168618 0)
(-0.121861 -0.223241 0)
(-0.120317 -0.281415 0)
(-0.0992155 -0.288637 0)
(-0.0332027 -0.129453 0)
(7.66905e-05 0.0591573 0)
(-0.00541995 0.110059 0)
(-0.0156579 0.135376 0)
(-0.0260175 0.156884 0)
(-0.0359485 0.177826 0)
(-0.0455533 0.191139 0)
(-0.0536334 0.18842 0)
(-0.0588656 0.166708 0)
(-0.0618735 0.129988 0)
(-0.0642744 0.0856491 0)
(-0.0666447 0.0391606 0)
(-0.0683877 -0.00683353 0)
(-0.06927 -0.0506346 0)
(-0.06949 -0.0898609 0)
(-0.0712904 -0.124127 0)
(-0.078214 -0.159522 0)
(-0.0909564 -0.210964 0)
(-0.0980355 -0.282955 0)
(-0.0905513 -0.327514 0)
(-0.0299718 -0.205172 0)
(0.00159326 0.0602864 0)
(0.000203975 0.116103 0)
(-0.005006 0.143485 0)
(-0.00997625 0.164452 0)
(-0.0136621 0.183853 0)
(-0.0165538 0.19576 0)
(-0.018607 0.192144 0)
(-0.01974 0.170113 0)
(-0.020922 0.1335 0)
(-0.0230026 0.0893125 0)
(-0.0258478 0.0426867 0)
(-0.0288762 -0.00389331 0)
(-0.0317636 -0.0485683 0)
(-0.0344931 -0.088297 0)
(-0.0380306 -0.120978 0)
(-0.0453538 -0.150646 0)
(-0.0608862 -0.195512 0)
(-0.0738497 -0.274485 0)
(-0.0788039 -0.350912 0)
(-0.0229046 -0.267202 0)
(0.00270814 0.0581199 0)
(0.00523808 0.117303 0)
(0.00504742 0.146463 0)
(0.00527865 0.166442 0)
(0.00757037 0.18386 0)
(0.01124 0.194575 0)
(0.0152609 0.191234 0)
(0.0187747 0.170547 0)
(0.0205057 0.135712 0)
(0.019964 0.0930054 0)
(0.0176453 0.047244 0)
(0.0138909 0.00099182 0)
(0.00900162 -0.0432814 0)
(0.00272479 -0.0826289 0)
(-0.00490397 -0.11399 0)
(-0.0147652 -0.139725 0)
(-0.0336568 -0.177544 0)
(-0.0509293 -0.258995 0)
(-0.0677135 -0.363102 0)
(-0.0153503 -0.319248 0)
(0.00315621 0.053459 0)
(0.00877836 0.113925 0)
(0.0130741 0.144201 0)
(0.0179529 0.162679 0)
(0.0254788 0.177515 0)
(0.035152 0.186763 0)
(0.0451741 0.184358 0)
(0.0539054 0.16649 0)
(0.0597253 0.135106 0)
(0.06197 0.0953663 0)
(0.0610046 0.0518178 0)
(0.0570787 0.00729491 0)
(0.0503947 -0.0352788 0)
(0.0407426 -0.0730495 0)
(0.027987 -0.10268 0)
(0.0135222 -0.125122 0)
(-0.00964662 -0.156775 0)
(-0.0291826 -0.23773 0)
(-0.0576307 -0.365338 0)
(-0.00759904 -0.361361 0)
(0.00283641 0.0475326 0)
(0.0102072 0.107134 0)
(0.0180638 0.138057 0)
(0.0268034 0.154902 0)
(0.0384863 0.166569 0)
(0.0530496 0.173519 0)
(0.0684887 0.171611 0)
(0.0825038 0.15704 0)
(0.0930233 0.130277 0)
(0.0989003 0.0950351 0)
(0.100035 0.0554022 0)
(0.0966095 0.0145549 0)
(0.0885065 -0.0245629 0)
(0.0757954 -0.0590526 0)
(0.0584409 -0.0863574 0)
(0.0388365 -0.106289 0)
(0.0106098 -0.132885 0)
(-0.00841948 -0.212524 0)
(-0.0486962 -0.362168 0)
(0.00063435 -0.397855 0)
(0.00174203 0.0418358 0)
(0.00897424 0.0983772 0)
(0.0187183 0.127802 0)
(0.0302686 0.142185 0)
(0.0451218 0.150422 0)
(0.0633124 0.154614 0)
(0.0830235 0.15251 0)
(0.101674 0.140995 0)
(0.116742 0.119491 0)
(0.126543 0.0902387 0)
(0.130265 0.0564812 0)
(0.128045 0.0213728 0)
(0.119296 -0.0125333 0)
(0.104629 -0.0422968 0)
(0.0836896 -0.0659991 0)
(0.0600403 -0.0837769 0)
(0.0275454 -0.106556 0)
(0.0119682 -0.185007 0)
(-0.0403453 -0.356968 0)
(0.010392 -0.43096 0)
(-0.000102695 0.0375946 0)
(0.00536148 0.0903052 0)
(0.0157112 0.11769 0)
(0.0291601 0.129193 0)
(0.0462326 0.13355 0)
(0.0666917 0.134342 0)
(0.0890153 0.130994 0)
(0.110783 0.121421 0)
(0.129324 0.104652 0)
(0.142567 0.081765 0)
(0.149048 0.0550406 0)
(0.148528 0.0270576 0)
(0.140237 4.59545e-05 0)
(0.125288 -0.0236914 0)
(0.102468 -0.0428248 0)
(0.0767625 -0.0584663 0)
(0.0420567 -0.0796533 0)
(0.0311237 -0.158919 0)
(-0.0315947 -0.353444 0)
(0.0239346 -0.460334 0)
(-0.00307866 0.0401932 0)
(-0.00406207 0.0837614 0)
(0.00423005 0.101989 0)
(0.0201975 0.109012 0)
(0.0403213 0.110504 0)
(0.0634164 0.109202 0)
(0.0879006 0.105271 0)
(0.111807 0.0975897 0)
(0.132717 0.0854068 0)
(0.148575 0.0690825 0)
(0.157521 0.0501807 0)
(0.159134 0.0303503 0)
(0.152153 0.0115628 0)
(0.138509 -0.00520423 0)
(0.115809 -0.0190144 0)
(0.0915397 -0.0327154 0)
(0.0577262 -0.054768 0)
(0.050132 -0.135731 0)
(-0.0162779 -0.345568 0)
(0.0462603 -0.475761 0)
(-0.00573961 0.0316823 0)
(-0.00813453 0.0867288 0)
(-0.00392778 0.0999898 0)
(0.0112852 0.0977851 0)
(0.032572 0.0930479 0)
(0.0567241 0.0882622 0)
(0.0819708 0.0831045 0)
(0.10644 0.0764235 0)
(0.128322 0.0678344 0)
(0.145889 0.0570202 0)
(0.157016 0.0452065 0)
(0.162245 0.0329355 0)
(0.158681 0.0219021 0)
(0.151173 0.011895 0)
(0.132872 0.00328523 0)
(0.118217 -0.00904237 0)
(0.0873343 -0.0350699 0)
(0.0811946 -0.120687 0)
(0.0238398 -0.318558 0)
(0.0872271 -0.450077 0)
(-0.100012 0.0919572 0)
(-0.0741582 0.0745769 0)
(-0.0557856 0.0629687 0)
(-0.0211085 0.0585029 0)
(0.0133128 0.0548164 0)
(0.047954 0.0512863 0)
(0.0809269 0.0479073 0)
(0.113264 0.043959 0)
(0.141206 0.0397792 0)
(0.168215 0.0346309 0)
(0.186898 0.0295585 0)
(0.205794 0.0242167 0)
(0.212035 0.0199601 0)
(0.222599 0.0160048 0)
(0.214337 0.0121846 0)
(0.218524 0.00354813 0)
(0.189181 -0.0207683 0)
(0.19239 -0.0861598 0)
(0.140662 -0.228108 0)
(0.168575 -0.340518 0)
(0.133714 0.107172 0)
(0.166656 0.0829789 0)
(0.224679 0.0612858 0)
(0.281118 0.0478618 0)
(0.326936 0.039687 0)
(0.369272 0.0337663 0)
(0.403484 0.0296074 0)
(0.439479 0.0258562 0)
(0.466027 0.0232382 0)
(0.497521 0.0202755 0)
(0.515676 0.0184337 0)
(0.542601 0.015755 0)
(0.55086 0.0146913 0)
(0.573464 0.0122454 0)
(0.569265 0.0119009 0)
(0.584678 0.00788458 0)
(0.555101 0.00330821 0)
(0.543088 -0.0156691 0)
(0.438477 -0.0486772 0)
(0.339212 -0.100417 0)
)
;

boundaryField
{
    movingWall
    {
        type            fixedValue;
        value           uniform (1 0 0);
    }
    fixedWalls
    {
        type            noSlip;
    }
    frontAndBack
    {
        type            empty;
    }
}


// ************************************************************************* //
