/*--------------------------------*- C++ -*----------------------------------*\
| =========                 |                                                 |
| \\      /  F ield         | OpenFOAM: The Open Source CFD Toolbox           |
|  \\    /   O peration     | Version:  2212                                  |
|   \\  /    A nd           | Website:  www.openfoam.com                      |
|    \\/     M anipulation  |                                                 |
\*---------------------------------------------------------------------------*/
FoamFile
{
    version     2.0;
    format      ascii;
    arch        "LSB;label=32;scalar=64";
    class       volScalarField;
    location    "2.735";
    object      p;
}
// * * * * * * * * * * * * * * * * * * * * * * * * * * * * * * * * * * * * * //

dimensions      [0 2 -2 0 0 0 0];

internalField   nonuniform List<scalar> 
400
(
1.73005e-06
-0.00582704
-0.0129653
-0.0184178
-0.0204355
-0.018242
-0.0117775
-0.00148724
0.0118339
0.0271459
0.0432413
0.0588201
0.0725757
0.0833056
0.0900499
0.0922641
0.090023
0.084241
0.0768778
0.0710642
0.00577903
-0.000220452
-0.00580653
-0.00954538
-0.010602
-0.00843593
-0.00297329
0.00547071
0.0162995
0.0287084
0.0417466
0.0543829
0.0655835
0.074407
0.0801174
0.0823128
0.0810743
0.0770518
0.0712711
0.0653148
0.013333
0.00503129
-0.000997939
-0.00442594
-0.00527591
-0.00326706
0.00159908
0.00902421
0.0184986
0.0293459
0.0407621
0.0518665
0.0617655
0.0696334
0.0748041
0.0768751
0.0758386
0.0720828
0.0658023
0.0575323
0.0201372
0.00869351
0.00122319
-0.00267138
-0.00372511
-0.00188841
0.00272806
0.00978125
0.018777
0.0290916
0.0399886
0.0506508
0.0602298
0.0679129
0.0730002
0.0749985
0.0737627
0.0694529
0.0615997
0.0500992
0.0244998
0.00977066
0.000587117
-0.00398975
-0.00530521
-0.00351042
0.00117156
0.0083313
0.0174586
0.0279457
0.0390816
0.0500666
0.0600456
0.0681619
0.0736233
0.0757946
0.0743658
0.0692865
0.0595222
0.0445336
0.0251756
0.00714758
-0.00380465
-0.00906
-0.0105151
-0.00850303
-0.00335994
0.00442623
0.0143101
0.0256757
0.0378104
0.0498999
0.0610447
0.0702998
0.0767314
0.0795137
0.0781357
0.0723303
0.0605359
0.0418865
0.0210911
-0.000264879
-0.0129371
-0.0187121
-0.0200327
-0.0174169
-0.0113215
-0.00232284
0.00898723
0.0219729
0.0359063
0.049941
0.0631088
0.0743419
0.0825186
0.0865662
0.0857175
0.0794438
0.065617
0.0430682
0.0111402
-0.0136208
-0.0278777
-0.033857
-0.0346063
-0.0308604
-0.0232159
-0.0123483
0.0011017
0.0164807
0.0330493
0.0499303
0.0660801
0.0802866
0.0911974
0.0974267
0.097867
0.0916328
0.075893
0.0491131
-0.00596992
-0.0342692
-0.0498728
-0.0555513
-0.0550929
-0.0495175
-0.0395965
-0.0261164
-0.00976022
0.00881986
0.0288978
0.0495903
0.0697943
0.0881513
0.103044
0.112698
0.115547
0.110189
0.092831
0.0614082
-0.03186
-0.063879
-0.0804198
-0.08501
-0.0824229
-0.0740812
-0.0609838
-0.0440396
-0.0239546
-0.00134001
0.0231425
0.0486579
0.0740925
0.0979691
0.118393
0.133123
0.139985
0.136815
0.118438
0.0819307
-0.0686703
-0.104606
-0.121347
-0.123593
-0.117518
-0.105129
-0.0877211
-0.0663284
-0.04164
-0.0141587
0.0156025
0.0469502
0.0788527
0.10979
0.137621
0.159583
0.172724
0.173775
0.155518
0.113568
-0.119405
-0.15936
-0.174918
-0.17276
-0.161151
-0.142932
-0.119762
-0.0927798
-0.0625803
-0.0294505
0.00637019
0.0444706
0.0840522
0.1237
0.161133
0.193083
0.215665
0.224074
0.208048
0.16063
-0.188631
-0.232245
-0.243941
-0.233951
-0.213697
-0.187157
-0.156375
-0.122504
-0.0859005
-0.0464748
-0.00401714
0.0415361
0.0898394
0.139827
0.189316
0.234687
0.271072
0.291662
0.28174
0.229773
-0.283977
-0.329307
-0.331834
-0.308282
-0.274711
-0.236442
-0.195767
-0.153612
-0.109842
-0.0637474
-0.0144402
0.0388611
0.0965519
0.158274
0.222372
0.285286
0.341395
0.381573
0.384912
0.331832
-0.419321
-0.459673
-0.442352
-0.395794
-0.342131
-0.287741
-0.234618
-0.182932
-0.131611
-0.0789867
-0.0232158
0.0374735
0.104551
0.178836
0.259859
0.344968
0.428614
0.499698
0.529673
0.48539
-0.620533
-0.636745
-0.578678
-0.494194
-0.411242
-0.335659
-0.267782
-0.205979
-0.147538
-0.0893842
-0.0284273
0.038347
0.113806
0.20047
0.299974
0.412024
0.533028
0.651774
0.73277
0.722394
-0.935925
-0.878516
-0.741742
-0.597949
-0.474394
-0.37266
-0.288869
-0.217763
-0.153954
-0.0924648
-0.0287182
0.0416948
0.123263
0.220717
0.338925
0.482154
0.651996
0.841341
1.01527
1.0975
-1.47642
-1.20663
-0.920504
-0.691388
-0.517305
-0.387544
-0.290062
-0.213338
-0.148124
-0.0872161
-0.0245783
0.0454568
0.128937
0.23307
0.367102
0.542677
0.771292
1.05932
1.40329
1.73014
-2.53965
-1.63055
-1.04444
-0.710959
-0.495751
-0.352093
-0.254531
-0.183584
-0.12617
-0.0735957
-0.0192697
0.0427862
0.119212
0.218782
0.354811
0.547983
0.826392
1.23658
1.91168
2.92419
-4.36666
-2.04463
-0.973542
-0.563181
-0.357847
-0.240147
-0.17012
-0.123783
-0.0874818
-0.0535109
-0.0166552
0.0276599
0.0846066
0.161729
0.27241
0.442098
0.718218
1.22571
2.41103
4.84853
)
;

boundaryField
{
    movingWall
    {
        type            zeroGradient;
    }
    fixedWalls
    {
        type            zeroGradient;
    }
    frontAndBack
    {
        type            empty;
    }
}


// ************************************************************************* //
