/*--------------------------------*- C++ -*----------------------------------*\
| =========                 |                                                 |
| \\      /  F ield         | OpenFOAM: The Open Source CFD Toolbox           |
|  \\    /   O peration     | Version:  2212                                  |
|   \\  /    A nd           | Website:  www.openfoam.com                      |
|    \\/     M anipulation  |                                                 |
\*---------------------------------------------------------------------------*/
FoamFile
{
    version     2.0;
    format      ascii;
    arch        "LSB;label=32;scalar=64";
    class       surfaceScalarField;
    location    "3.41";
    object      phi;
}
// * * * * * * * * * * * * * * * * * * * * * * * * * * * * * * * * * * * * * //

dimensions      [0 3 -1 0 0 0 0];

oriented        oriented;

internalField   nonuniform List<scalar> 
760
(
1.49921e-07
-1.49921e-07
2.80533e-07
-1.30613e-07
2.94059e-07
-1.35257e-08
1.6851e-07
1.25549e-07
-1.30902e-07
2.99413e-07
-6.65932e-07
5.3503e-07
-1.46784e-06
8.01912e-07
-2.45364e-06
9.85791e-07
-3.42777e-06
9.74137e-07
-4.16168e-06
7.33904e-07
-4.48856e-06
3.26879e-07
-4.31189e-06
-1.76662e-07
-3.57244e-06
-7.39449e-07
-2.3811e-06
-1.19135e-06
-9.63681e-07
-1.41742e-06
3.10154e-07
-1.27384e-06
1.05354e-06
-7.43384e-07
1.01017e-06
4.33701e-08
4.52687e-07
5.57482e-07
4.52687e-07
1.14857e-07
-2.64778e-07
5.68273e-08
-7.2583e-08
-3.11807e-07
3.55109e-07
-1.07915e-06
8.92892e-07
-2.29018e-06
1.51044e-06
-3.86902e-06
2.11387e-06
-5.5745e-06
2.50739e-06
-7.10036e-06
2.51165e-06
-8.22254e-06
2.09632e-06
-8.82945e-06
1.34081e-06
-8.87298e-06
3.70415e-07
-8.32912e-06
-7.2053e-07
-7.22872e-06
-1.83984e-06
-5.60329e-06
-2.81678e-06
-3.59404e-06
-3.42666e-06
-1.50125e-06
-3.36662e-06
1.52483e-07
-2.39712e-06
8.36101e-07
-6.40247e-07
5.16074e-07
8.7751e-07
9.68761e-07
-1.34155e-07
-1.30623e-07
-6.37596e-07
4.30857e-07
-1.61104e-06
1.32855e-06
-3.09585e-06
2.3777e-06
-4.97395e-06
3.38855e-06
-6.95695e-06
4.09688e-06
-8.73518e-06
4.28562e-06
-1.01271e-05
3.90355e-06
-1.10782e-05
3.04741e-06
-1.15798e-05
1.84243e-06
-1.15831e-05
3.73671e-07
-1.11359e-05
-1.16764e-06
-1.02209e-05
-2.7549e-06
-8.78364e-06
-4.25403e-06
-6.80332e-06
-5.40698e-06
-4.36752e-06
-5.80242e-06
-1.87044e-06
-4.89421e-06
-9.40992e-08
-2.41659e-06
2.90589e-07
4.92821e-07
1.25935e-06
-4.95105e-07
3.64482e-07
-1.53722e-06
1.47297e-06
-3.06509e-06
2.85642e-06
-4.9883e-06
4.30092e-06
-7.05714e-06
5.45738e-06
-8.97048e-06
6.01022e-06
-1.05256e-05
5.84078e-06
-1.1676e-05
5.0539e-06
-1.24479e-05
3.8193e-06
-1.28759e-05
2.27048e-06
-1.29472e-05
4.44931e-07
-1.27165e-05
-1.39831e-06
-1.2148e-05
-3.32345e-06
-1.11397e-05
-5.2623e-06
-9.56056e-06
-6.98612e-06
-7.28617e-06
-8.07682e-06
-4.35502e-06
-7.82535e-06
-1.36992e-06
-5.40168e-06
1.17208e-07
-9.94308e-07
1.37656e-06
-8.44569e-07
1.20905e-06
-2.31347e-06
2.94187e-06
-4.14665e-06
4.68959e-06
-6.15788e-06
6.31215e-06
-8.07361e-06
7.37312e-06
-9.67203e-06
7.60863e-06
-1.08724e-05
7.04117e-06
-1.16981e-05
5.87962e-06
-1.22103e-05
4.33145e-06
-1.2482e-05
2.5422e-06
-1.2603e-05
5.65946e-07
-1.25647e-05
-1.43665e-06
-1.23565e-05
-3.53165e-06
-1.18983e-05
-5.72045e-06
-1.10034e-05
-7.88103e-06
-9.38444e-06
-9.69577e-06
-6.74591e-06
-1.04639e-05
-3.18903e-06
-8.95856e-06
-2.62142e-07
-3.92119e-06
1.11442e-06
-1.06029e-06
2.26934e-06
-2.72124e-06
4.60283e-06
-4.5783e-06
6.54665e-06
-6.40678e-06
8.14063e-06
-7.98549e-06
8.95182e-06
-9.18084e-06
8.80398e-06
-9.98403e-06
7.84435e-06
-1.04577e-05
6.35329e-06
-1.06919e-05
4.56563e-06
-1.07877e-05
2.63806e-06
-1.08674e-05
6.45647e-07
-1.09239e-05
-1.38019e-06
-1.09706e-05
-3.48494e-06
-1.0977e-05
-5.71403e-06
-1.0787e-05
-8.07103e-06
-1.00717e-05
-1.04111e-05
-8.33929e-06
-1.21963e-05
-5.18151e-06
-1.21163e-05
-1.14685e-06
-7.95586e-06
-3.24353e-08
-1.0809e-06
3.35024e-06
-2.69283e-06
6.21476e-06
-4.35937e-06
8.21319e-06
-5.87189e-06
9.65315e-06
-7.07094e-06
1.01509e-05
-7.89015e-06
9.6232e-06
-8.36265e-06
8.31685e-06
-8.57344e-06
6.56408e-06
-8.62654e-06
4.61873e-06
-8.6217e-06
2.63322e-06
-8.64539e-06
6.69335e-07
-8.71985e-06
-1.30573e-06
-8.86489e-06
-3.33991e-06
-9.09094e-06
-5.48797e-06
-9.33745e-06
-7.82452e-06
-9.36777e-06
-1.03808e-05
-8.66044e-06
-1.29036e-05
-6.46527e-06
-1.43115e-05
-2.39272e-06
-1.20284e-05
-2.42515e-06
-9.09173e-07
4.25941e-06
-2.28995e-06
7.59554e-06
-3.65241e-06
9.57565e-06
-4.81381e-06
1.08145e-05
-5.67204e-06
1.10091e-05
-6.20634e-06
1.01575e-05
-6.47011e-06
8.58062e-06
-6.55303e-06
6.647e-06
-6.55274e-06
4.61844e-06
-6.54564e-06
2.62612e-06
-6.57156e-06
6.95252e-07
-6.64975e-06
-1.22753e-06
-6.80294e-06
-3.18672e-06
-7.06222e-06
-5.2287e-06
-7.44236e-06
-7.44439e-06
-7.84574e-06
-9.97741e-06
-7.85505e-06
-1.28943e-05
-6.65292e-06
-1.55136e-05
-3.54013e-06
-1.51412e-05
-5.96528e-06
-6.05838e-07
4.86525e-06
-1.64492e-06
8.63462e-06
-2.65975e-06
1.05905e-05
-3.48528e-06
1.16401e-05
-4.0644e-06
1.15882e-05
-4.40431e-06
1.04974e-05
-4.5614e-06
8.73771e-06
-4.61361e-06
6.69921e-06
-4.63491e-06
4.63975e-06
-4.67184e-06
2.66305e-06
-4.73658e-06
7.59991e-07
-4.83709e-06
-1.12702e-06
-4.98498e-06
-3.03882e-06
-5.21091e-06
-5.00277e-06
-5.57082e-06
-7.08448e-06
-6.07428e-06
-9.47394e-06
-6.49241e-06
-1.24762e-05
-6.07772e-06
-1.59283e-05
-3.8871e-06
-1.73318e-05
-9.85238e-06
-2.23734e-07
5.08899e-06
-8.69147e-07
9.28003e-06
-1.52843e-06
1.12498e-05
-2.04845e-06
1.21601e-05
-2.39998e-06
1.19397e-05
-2.60569e-06
1.07031e-05
-2.71284e-06
8.84486e-06
-2.77468e-06
6.76105e-06
-2.83713e-06
4.7022e-06
-2.92356e-06
2.74947e-06
-3.03711e-06
8.73543e-07
-3.17813e-06
-9.86001e-07
-3.34809e-06
-2.86886e-06
-3.56158e-06
-4.78928e-06
-3.87342e-06
-6.77264e-06
-4.36568e-06
-8.98168e-06
-4.97654e-06
-1.18653e-05
-5.09209e-06
-1.58128e-05
-3.53682e-06
-1.88871e-05
-1.33892e-05
1.60831e-07
4.92815e-06
-6.56331e-08
9.5065e-06
-3.91737e-07
1.15759e-05
-6.37201e-07
1.24056e-05
-7.86861e-07
1.20894e-05
-8.71215e-07
1.07875e-05
-9.29897e-07
8.90354e-06
-9.95245e-07
6.8264e-06
-1.0841e-06
4.79106e-06
-1.2039e-06
2.86927e-06
-1.35629e-06
1.02594e-06
-1.54332e-06
-7.98971e-07
-1.76458e-06
-2.6476e-06
-2.02007e-06
-4.5338e-06
-2.34133e-06
-6.45138e-06
-2.82582e-06
-8.49718e-06
-3.5321e-06
-1.1159e-05
-4.01028e-06
-1.53346e-05
-3.01573e-06
-1.98816e-05
-1.64049e-05
4.8748e-07
4.44067e-06
6.81961e-07
9.31201e-06
7.25256e-07
1.15326e-05
7.62432e-07
1.23684e-05
8.10013e-07
1.20418e-05
8.41425e-07
1.07561e-05
8.35671e-07
8.90929e-06
7.84171e-07
6.8779e-06
6.8936e-07
4.88587e-06
5.54257e-07
3.00437e-06
3.75402e-07
1.20479e-06
1.46849e-07
-5.70417e-07
-1.34071e-07
-2.36669e-06
-4.74554e-07
-4.19331e-06
-8.82095e-07
-6.04384e-06
-1.40779e-06
-7.97149e-06
-2.19922e-06
-1.03676e-05
-2.95698e-06
-1.45768e-05
-2.4627e-06
-2.03759e-05
-1.88676e-05
7.33157e-07
3.70752e-06
1.318e-06
8.72717e-06
1.70444e-06
1.11461e-05
2.0312e-06
1.20416e-05
2.30442e-06
1.17686e-05
2.4912e-06
1.05693e-05
2.58099e-06
8.8195e-06
2.58421e-06
6.87468e-06
2.51643e-06
4.95365e-06
2.38739e-06
3.13341e-06
2.19213e-06
1.40005e-06
1.91723e-06
-2.95519e-07
1.5612e-06
-2.01065e-06
1.11889e-06
-3.751e-06
5.83871e-07
-5.50882e-06
-9.99845e-08
-7.28763e-06
-9.761e-07
-9.4915e-06
-1.9409e-06
-1.3612e-05
-1.93548e-06
-2.03814e-05
-2.08031e-05
8.41742e-07
2.86578e-06
1.75845e-06
7.81046e-06
2.48648e-06
1.04181e-05
3.11943e-06
1.14087e-05
3.66294e-06
1.12251e-05
4.07109e-06
1.01611e-05
4.32527e-06
8.56533e-06
4.4387e-06
6.76125e-06
4.43592e-06
4.95643e-06
4.33446e-06
3.23486e-06
4.13435e-06
1.60016e-06
3.81098e-06
2.78519e-08
3.37374e-06
-1.57341e-06
2.80287e-06
-3.18014e-06
2.09701e-06
-4.80296e-06
1.27045e-06
-6.46107e-06
2.27448e-07
-8.4485e-06
-9.92822e-07
-1.23918e-05
-1.4436e-06
-1.99306e-05
-2.22467e-05
7.77579e-07
2.0882e-06
1.89321e-06
6.69483e-06
2.9142e-06
9.39711e-06
3.87327e-06
1.04496e-05
4.74091e-06
1.03575e-05
5.44885e-06
9.45319e-06
5.95531e-06
8.05886e-06
6.26204e-06
6.45452e-06
6.3911e-06
4.82737e-06
6.36312e-06
3.26284e-06
6.17982e-06
1.78346e-06
5.83475e-06
3.72928e-07
5.30408e-06
-1.04274e-06
4.58957e-06
-2.46563e-06
3.68356e-06
-3.89696e-06
2.6138e-06
-5.39131e-06
1.33298e-06
-7.16768e-06
-1.86275e-07
-1.08725e-05
-9.36761e-07
-1.91801e-05
-2.31835e-05
5.55315e-07
1.53288e-06
1.69989e-06
5.55025e-06
3.00783e-06
8.08918e-06
4.3345e-06
9.12294e-06
5.58287e-06
9.10908e-06
6.65291e-06
8.38315e-06
7.47685e-06
7.23492e-06
8.04037e-06
5.89099e-06
8.35618e-06
4.51157e-06
8.44296e-06
3.17606e-06
8.30887e-06
1.91756e-06
7.95329e-06
7.28507e-07
7.334e-06
-4.23448e-07
6.46758e-06
-1.59921e-06
5.34141e-06
-2.7708e-06
3.99732e-06
-4.04722e-06
2.49689e-06
-5.66724e-06
9.00609e-07
-9.27623e-06
-1.70782e-07
-1.81087e-05
-2.33542e-05
1.39072e-07
1.39381e-06
9.90822e-07
4.6985e-06
2.43211e-06
6.64789e-06
4.1209e-06
7.43415e-06
5.81572e-06
7.41427e-06
7.32964e-06
6.86923e-06
8.55802e-06
6.00653e-06
9.46968e-06
4.97934e-06
1.00591e-05
3.92213e-06
1.03396e-05
2.8956e-06
1.03175e-05
1.93959e-06
1.00003e-05
1.04577e-06
9.35004e-06
2.26792e-07
8.37778e-06
-6.26953e-07
7.08247e-06
-1.47548e-06
5.51322e-06
-2.47797e-06
3.82579e-06
-3.97981e-06
2.18917e-06
-7.63961e-06
6.33154e-07
-1.65527e-05
-2.27211e-05
-5.08242e-07
1.90205e-06
1.8065e-07
4.00961e-06
1.69235e-06
5.13619e-06
3.71039e-06
5.4161e-06
5.8258e-06
5.29886e-06
7.75558e-06
4.93945e-06
9.36161e-06
4.4005e-06
1.06018e-05
3.73914e-06
1.14573e-05
3.0666e-06
1.1946e-05
2.40696e-06
1.20728e-05
1.8128e-06
1.18591e-05
1.25943e-06
1.13241e-05
7.61781e-07
1.04481e-05
2.49118e-07
9.23537e-06
-2.62789e-07
7.75081e-06
-9.9341e-07
6.18056e-06
-2.40956e-06
4.40982e-06
-5.86887e-06
2.03609e-06
-1.41789e-05
-2.0685e-05
-4.16969e-06
6.07174e-06
-3.63911e-06
3.47903e-06
-1.27431e-06
2.77139e-06
1.48418e-06
2.65761e-06
4.18377e-06
2.59926e-06
6.68267e-06
2.44055e-06
8.87067e-06
2.2125e-06
1.06881e-05
1.92166e-06
1.21173e-05
1.63748e-06
1.31845e-05
1.33973e-06
1.3907e-05
1.09029e-06
1.4329e-05
8.37476e-07
1.44406e-05
6.50163e-07
1.42546e-05
4.35066e-07
1.37565e-05
2.35338e-07
1.29606e-05
-1.97493e-07
1.18621e-05
-1.31111e-06
1.00875e-05
-4.09425e-06
5.62767e-06
-9.71911e-06
-1.50573e-05
6.07174e-06
9.55077e-06
1.23222e-05
1.49798e-05
1.7579e-05
2.00196e-05
2.22321e-05
2.41537e-05
2.57912e-05
2.7131e-05
2.82212e-05
2.90587e-05
2.97089e-05
3.0144e-05
3.03793e-05
3.01818e-05
2.88707e-05
2.47764e-05
1.50573e-05
)
;

boundaryField
{
    movingWall
    {
        type            calculated;
        value           uniform 0;
    }
    fixedWalls
    {
        type            calculated;
        value           uniform 0;
    }
    frontAndBack
    {
        type            empty;
        value           nonuniform List<scalar> 0();
    }
}


// ************************************************************************* //
