/*--------------------------------*- C++ -*----------------------------------*\
| =========                 |                                                 |
| \\      /  F ield         | OpenFOAM: The Open Source CFD Toolbox           |
|  \\    /   O peration     | Version:  2212                                  |
|   \\  /    A nd           | Website:  www.openfoam.com                      |
|    \\/     M anipulation  |                                                 |
\*---------------------------------------------------------------------------*/
FoamFile
{
    version     2.0;
    format      ascii;
    arch        "LSB;label=32;scalar=64";
    class       volVectorField;
    location    "1.16";
    object      U;
}
// * * * * * * * * * * * * * * * * * * * * * * * * * * * * * * * * * * * * * //

dimensions      [0 1 -1 0 0 0 0];

internalField   nonuniform List<vector> 
400
(
(0.000202232 -0.000369657 0)
(-0.000326431 3.265e-05 0)
(-0.00203952 0.000276872 0)
(-0.00422174 0.000439634 0)
(-0.00704134 0.000726667 0)
(-0.010904 0.00122453 0)
(-0.0161922 0.00193716 0)
(-0.0230268 0.00276287 0)
(-0.0309588 0.00342975 0)
(-0.0387413 0.00351609 0)
(-0.0444885 0.00264774 0)
(-0.0462441 0.000780988 0)
(-0.0425507 -0.00164448 0)
(-0.0331903 -0.00400205 0)
(-0.0200424 -0.00528547 0)
(-0.00568817 -0.00471345 0)
(0.00543893 -0.00260854 0)
(0.00963952 0.000621209 0)
(0.00695265 0.00252226 0)
(0.00207102 0.00200353 0)
(-0.000700368 0.00051307 0)
(-0.00404999 0.0027326 0)
(-0.0100166 0.00402343 0)
(-0.0171915 0.00510648 0)
(-0.0258294 0.00668349 0)
(-0.036497 0.00891515 0)
(-0.0494227 0.0115107 0)
(-0.06408 0.0137011 0)
(-0.0788811 0.0142942 0)
(-0.091343 0.0121017 0)
(-0.0988009 0.00663792 0)
(-0.0992119 -0.00140892 0)
(-0.0917058 -0.01043 0)
(-0.076207 -0.0184943 0)
(-0.0546407 -0.0229929 0)
(-0.0298128 -0.0216389 0)
(-0.00658384 -0.0139821 0)
(0.00786633 -0.00215431 0)
(0.00887392 0.00685447 0)
(0.0030813 0.00692582 0)
(-0.00178502 0.00417846 0)
(-0.00814792 0.00989644 0)
(-0.0182056 0.0130286 0)
(-0.0298478 0.0158023 0)
(-0.0433502 0.0194641 0)
(-0.0592321 0.0240005 0)
(-0.0774917 0.0284758 0)
(-0.0973179 0.0312416 0)
(-0.116854 0.0303007 0)
(-0.133314 0.0239956 0)
(-0.143686 0.0119363 0)
(-0.14591 -0.00430787 0)
(-0.139443 -0.0219823 0)
(-0.123852 -0.0381822 0)
(-0.0999356 -0.0488201 0)
(-0.0690739 -0.0496286 0)
(-0.0348949 -0.037326 0)
(-0.00533852 -0.0139363 0)
(0.00658379 0.00774009 0)
(0.00319973 0.0122782 0)
(-0.00269058 0.0100386 0)
(-0.011585 0.0203763 0)
(-0.0249771 0.0256727 0)
(-0.0400939 0.0303696 0)
(-0.0572949 0.0363185 0)
(-0.077245 0.0433246 0)
(-0.100141 0.0499161 0)
(-0.12528 0.0535991 0)
(-0.150417 0.0512301 0)
(-0.171854 0.0402223 0)
(-0.18591 0.0205355 0)
(-0.190948 -0.0048195 0)
(-0.187304 -0.0322281 0)
(-0.174543 -0.0584567 0)
(-0.152064 -0.0784605 0)
(-0.119309 -0.0863385 0)
(-0.0771029 -0.0750933 0)
(-0.0308065 -0.0414198 0)
(0.00149842 1.70208e-06 0)
(0.00384185 0.016359 0)
(-0.00327242 0.0176361 0)
(-0.0139072 0.0333985 0)
(-0.0296073 0.0410656 0)
(-0.0471418 0.0478949 0)
(-0.0670663 0.0565144 0)
(-0.0903564 0.0666306 0)
(-0.117449 0.0760189 0)
(-0.147257 0.0805558 0)
(-0.176207 0.0753352 0)
(-0.199408 0.0577577 0)
(-0.213757 0.0297671 0)
(-0.21949 -0.0044959 0)
(-0.218331 -0.0417755 0)
(-0.210134 -0.0781855 0)
(-0.19349 -0.109464 0)
(-0.165819 -0.129048 0)
(-0.124387 -0.126901 0)
(-0.0689299 -0.0910875 0)
(-0.0102365 -0.0232488 0)
(0.00557921 0.0176476 0)
(-0.00343688 0.0262165 0)
(-0.0148523 0.047966 0)
(-0.0317024 0.0582362 0)
(-0.050506 0.0674896 0)
(-0.0719563 0.0792414 0)
(-0.0971372 0.0928676 0)
(-0.126214 0.104707 0)
(-0.156921 0.108514 0)
(-0.184206 0.098507 0)
(-0.203512 0.0738287 0)
(-0.214399 0.038863 0)
(-0.219027 -0.0019495 0)
(-0.219352 -0.0460402 0)
(-0.215697 -0.0895713 0)
(-0.207445 -0.130776 0)
(-0.190712 -0.164434 0)
(-0.159797 -0.17967 0)
(-0.108861 -0.156613 0)
(-0.038194 -0.0751685 0)
(0.00496059 0.011451 0)
(-0.00313359 0.0348936 0)
(-0.0142606 0.0629358 0)
(-0.0309523 0.0760144 0)
(-0.0495659 0.0878227 0)
(-0.0706379 0.102687 0)
(-0.0949674 0.119277 0)
(-0.122172 0.132178 0)
(-0.149096 0.133576 0)
(-0.17041 0.118063 0)
(-0.183073 0.0869544 0)
(-0.188937 0.0465435 0)
(-0.191327 0.00198401 0)
(-0.19167 -0.043988 0)
(-0.190682 -0.0895852 0)
(-0.189619 -0.135216 0)
(-0.185203 -0.179667 0)
(-0.170142 -0.215016 0)
(-0.135292 -0.218641 0)
(-0.0755734 -0.151762 0)
(-0.00278652 -0.00833956 0)
(-0.00237394 0.042717 0)
(-0.0121164 0.0770533 0)
(-0.0272574 0.0929989 0)
(-0.0440282 0.107088 0)
(-0.0625316 0.124342 0)
(-0.0831758 0.142647 0)
(-0.105391 0.155129 0)
(-0.126063 0.153227 0)
(-0.1407 0.13246 0)
(-0.147935 0.0959501 0)
(-0.150497 0.0512869 0)
(-0.151036 0.00433332 0)
(-0.150521 -0.0415539 0)
(-0.150235 -0.0859217 0)
(-0.152292 -0.130065 0)
(-0.156033 -0.177152 0)
(-0.155045 -0.226322 0)
(-0.138521 -0.258914 0)
(-0.0989195 -0.224093 0)
(-0.0209753 -0.0502525 0)
(-0.00126096 0.0487873 0)
(-0.00865204 0.0890508 0)
(-0.0209843 0.107722 0)
(-0.0344713 0.123434 0)
(-0.0486735 0.141915 0)
(-0.0637324 0.160613 0)
(-0.079395 0.171813 0)
(-0.0933824 0.166801 0)
(-0.102632 0.142015 0)
(-0.106991 0.101693 0)
(-0.108902 0.053984 0)
(-0.109818 0.00500952 0)
(-0.109894 -0.0419225 0)
(-0.109873 -0.0854121 0)
(-0.112095 -0.126002 0)
(-0.118699 -0.169218 0)
(-0.126271 -0.222668 0)
(-0.123296 -0.27793 0)
(-0.100479 -0.281913 0)
(-0.0332243 -0.122175 0)
(2.93404e-06 0.0524668 0)
(-0.00436695 0.0978928 0)
(-0.0129891 0.119018 0)
(-0.0222548 0.135551 0)
(-0.0311849 0.154041 0)
(-0.0397336 0.172117 0)
(-0.0482672 0.18197 0)
(-0.0557756 0.175102 0)
(-0.0607261 0.148438 0)
(-0.0636191 0.10638 0)
(-0.0660556 0.0570646 0)
(-0.068403 0.00662675 0)
(-0.070179 -0.0416303 0)
(-0.0714112 -0.0852647 0)
(-0.0739249 -0.123176 0)
(-0.0812538 -0.160437 0)
(-0.0938881 -0.211172 0)
(-0.10038 -0.280714 0)
(-0.0917263 -0.322661 0)
(-0.0307013 -0.199831 0)
(0.00113007 0.0534002 0)
(2.12299e-05 0.102865 0)
(-0.00441721 0.126087 0)
(-0.00911317 0.142638 0)
(-0.0125508 0.160017 0)
(-0.0144514 0.176732 0)
(-0.0157577 0.18559 0)
(-0.0167312 0.178363 0)
(-0.0173579 0.151932 0)
(-0.0185913 0.110409 0)
(-0.021096 0.0614365 0)
(-0.0245167 0.0108027 0)
(-0.0283066 -0.0380913 0)
(-0.0322282 -0.0821334 0)
(-0.0370018 -0.118686 0)
(-0.0455054 -0.150703 0)
(-0.061824 -0.195287 0)
(-0.0751162 -0.27214 0)
(-0.079497 -0.34642 0)
(-0.0233184 -0.262578 0)
(0.00193989 0.0518348 0)
(0.00382762 0.103943 0)
(0.00348789 0.128824 0)
(0.00318894 0.14477 0)
(0.00487716 0.160128 0)
(0.00920186 0.174775 0)
(0.0148365 0.182812 0)
(0.0203472 0.176587 0)
(0.0246582 0.152372 0)
(0.0264127 0.1134 0)
(0.0251907 0.0664337 0)
(0.0215473 0.0169333 0)
(0.0158575 -0.0314072 0)
(0.00837198 -0.0749335 0)
(-0.000878363 -0.110196 0)
(-0.0125874 -0.138501 0)
(-0.0329474 -0.176526 0)
(-0.0512601 -0.256274 0)
(-0.0679221 -0.358773 0)
(-0.0156424 -0.314931 0)
(0.00224976 0.0484319 0)
(0.00637831 0.101448 0)
(0.00956168 0.127236 0)
(0.0131223 0.142007 0)
(0.0191389 0.154625 0)
(0.0285784 0.166382 0)
(0.0402276 0.173107 0)
(0.0518651 0.168387 0)
(0.0614977 0.147961 0)
(0.0673221 0.113484 0)
(0.0685877 0.0703851 0)
(0.06569 0.0238541 0)
(0.0586551 -0.0222115 0)
(0.0481463 -0.0637419 0)
(0.0338763 -0.0969838 0)
(0.0172742 -0.122023 0)
(-0.00789393 -0.154119 0)
(-0.0290353 -0.233989 0)
(-0.0576029 -0.360618 0)
(-0.00773082 -0.356974 0)
(0.00197773 0.0441838 0)
(0.0072232 0.0965203 0)
(0.0130232 0.122664 0)
(0.0196824 0.135986 0)
(0.0290195 0.145355 0)
(0.0420717 0.153408 0)
(0.0580539 0.157858 0)
(0.0746551 0.153978 0)
(0.0892167 0.137657 0)
(0.0994068 0.108953 0)
(0.103805 0.0715931 0)
(0.102553 0.0302319 0)
(0.0950478 -0.0114025 0)
(0.0822818 -0.0488101 0)
(0.0639558 -0.0791037 0)
(0.0426867 -0.101467 0)
(0.0125291 -0.128693 0)
(-0.00843633 -0.207952 0)
(-0.048735 -0.357269 0)
(0.000489282 -0.393382 0)
(0.00108076 0.0402411 0)
(0.00595443 0.0902551 0)
(0.0129347 0.114816 0)
(0.0217528 0.125919 0)
(0.0336107 0.132038 0)
(0.0491109 0.136406 0)
(0.0676955 0.1382 0)
(0.0874534 0.134366 0)
(0.105636 0.121622 0)
(0.119528 0.099102 0)
(0.127075 0.0689278 0)
(0.127718 0.0346878 0)
(0.120859 -0.000219039 0)
(0.107466 -0.0318595 0)
(0.0867027 -0.0579392 0)
(0.0623748 -0.0776493 0)
(0.0286 -0.101028 0)
(0.0113854 -0.179547 0)
(-0.0406419 -0.351855 0)
(0.0102098 -0.426608 0)
(-0.000520601 0.0375899 0)
(0.00274464 0.0850039 0)
(0.00988194 0.107855 0)
(0.0200744 0.11605 0)
(0.0336975 0.118477 0)
(0.0507095 0.119025 0)
(0.0704963 0.117913 0)
(0.0915717 0.113367 0)
(0.111574 0.10312 0)
(0.127839 0.0860776 0)
(0.137966 0.0632852 0)
(0.140775 0.037093 0)
(0.135404 0.0104043 0)
(0.12263 -0.0143726 0)
(0.101342 -0.0351312 0)
(0.0763248 -0.0520078 0)
(0.0414526 -0.0734133 0)
(0.0298801 -0.153044 0)
(-0.032275 -0.348687 0)
(0.0235822 -0.456586 0)
(-0.00329151 0.0415142 0)
(-0.0057924 0.0810023 0)
(-0.000545296 0.0951579 0)
(0.0117592 0.0994239 0)
(0.0282763 0.0994053 0)
(0.0474996 0.0977843 0)
(0.0685388 0.0950866 0)
(0.0902785 0.0904402 0)
(0.110919 0.0825502 0)
(0.128289 0.0705206 0)
(0.140032 0.0549095 0)
(0.144856 0.0369519 0)
(0.141218 0.0188653 0)
(0.130406 0.0017878 0)
(0.110341 -0.0126674 0)
(0.0877764 -0.026842 0)
(0.05498 -0.0486031 0)
(0.04821 -0.130036 0)
(-0.0175286 -0.341876 0)
(0.0456359 -0.473081 0)
(-0.00489221 0.033446 0)
(-0.00828493 0.0865297 0)
(-0.00716773 0.0965418 0)
(0.00416132 0.0920999 0)
(0.0213212 0.0861369 0)
(0.0411811 0.08101 0)
(0.0624719 0.0764059 0)
(0.0840077 0.0713193 0)
(0.104534 0.065123 0)
(0.122405 0.056912 0)
(0.135438 0.0472747 0)
(0.143321 0.0363768 0)
(0.143132 0.0259856 0)
(0.138724 0.0160111 0)
(0.123576 0.0073399 0)
(0.111127 -0.00497127 0)
(0.0822532 -0.0305072 0)
(0.0781226 -0.116718 0)
(0.0220071 -0.316831 0)
(0.0864713 -0.448729 0)
(-0.0992452 0.0932438 0)
(-0.0736097 0.0754277 0)
(-0.0566992 0.0619162 0)
(-0.0246632 0.0563539 0)
(0.00669329 0.051938 0)
(0.0379862 0.0480398 0)
(0.0677589 0.0446617 0)
(0.0973622 0.0412088 0)
(0.123594 0.037938 0)
(0.149846 0.0338835 0)
(0.169119 0.0298327 0)
(0.189285 0.0251945 0)
(0.197592 0.0213758 0)
(0.210316 0.0175873 0)
(0.204262 0.0138916 0)
(0.210871 0.00544378 0)
(0.183091 -0.0187869 0)
(0.188414 -0.0847338 0)
(0.13883 -0.22775 0)
(0.168071 -0.340111 0)
(0.134174 0.107639 0)
(0.167805 0.0839475 0)
(0.226409 0.0622974 0)
(0.282647 0.0487275 0)
(0.32769 0.0403002 0)
(0.368722 0.0341139 0)
(0.401423 0.0297093 0)
(0.435797 0.0257935 0)
(0.460968 0.023095 0)
(0.49147 0.0201464 0)
(0.509138 0.018358 0)
(0.536193 0.0157528 0)
(0.544872 0.0147467 0)
(0.568401 0.0123598 0)
(0.564966 0.012089 0)
(0.581566 0.00814881 0)
(0.552743 0.00366675 0)
(0.541761 -0.0153388 0)
(0.438202 -0.0482938 0)
(0.339185 -0.100084 0)
)
;

boundaryField
{
    movingWall
    {
        type            fixedValue;
        value           uniform (1 0 0);
    }
    fixedWalls
    {
        type            noSlip;
    }
    frontAndBack
    {
        type            empty;
    }
}


// ************************************************************************* //
