/*--------------------------------*- C++ -*----------------------------------*\
| =========                 |                                                 |
| \\      /  F ield         | OpenFOAM: The Open Source CFD Toolbox           |
|  \\    /   O peration     | Version:  2212                                  |
|   \\  /    A nd           | Website:  www.openfoam.com                      |
|    \\/     M anipulation  |                                                 |
\*---------------------------------------------------------------------------*/
FoamFile
{
    version     2.0;
    format      ascii;
    arch        "LSB;label=32;scalar=64";
    class       volScalarField;
    location    "0.325";
    object      p;
}
// * * * * * * * * * * * * * * * * * * * * * * * * * * * * * * * * * * * * * //

dimensions      [0 2 -2 0 0 0 0];

internalField   nonuniform List<scalar> 
400
(
-1.42981e-09
-1.39319e-05
1.91595e-05
9.58507e-05
0.000215896
0.000380691
0.000591932
0.000851171
0.00115916
0.00151501
0.00191519
0.0023525
0.0028149
0.00328484
0.0037388
0.00414845
0.0044837
0.00471831
0.00483497
0.00482639
1.48636e-05
4.22693e-07
3.63655e-05
0.000113575
0.000231408
0.000392297
0.000598533
0.000852036
0.00115392
0.00150375
0.00189848
0.00233148
0.00279152
0.0032615
0.0037178
0.00413147
0.00447158
0.00471153
0.00483257
0.00482051
-2.45415e-05
-4.37907e-05
-9.36093e-06
6.55927e-05
0.000179786
0.000336195
0.00053774
0.000787122
0.00108644
0.00143644
0.00183549
0.00227837
0.00275493
0.00324817
0.00373325
0.00417792
0.00454611
0.00480573
0.00493328
0.00490957
-0.000118514
-0.000142368
-0.000111151
-4.03056e-05
6.86234e-05
0.000219177
0.000415126
0.000660349
0.000958503
0.00131225
0.00172216
0.00218521
0.00269312
0.00322974
0.00376792
0.00426974
0.00468981
0.0049856
0.00512574
0.00508716
-0.000268064
-0.000295913
-0.000268888
-0.00020377
-0.000102045
4.05484e-05
0.000228864
0.000468321
0.00076466
0.00112323
0.0015478
0.0020388
0.00259096
0.00319078
0.00380857
0.00439851
0.00490063
0.00525448
0.00541494
0.00535358
-0.000473203
-0.00050537
-0.000483803
-0.000426432
-0.000334626
-0.000203337
-2.64805e-05
0.000203178
0.000493947
0.000854656
0.00129356
0.00181618
0.002422
0.00310492
0.00383289
0.00455107
0.00517805
0.00562308
0.0058146
0.00571169
-0.000732951
-0.000770298
-0.000755845
-0.000708886
-0.000630813
-0.000515872
-0.000356772
-0.000144378
0.000132494
0.000486882
0.000932941
0.00148329
0.0021432
0.00292635
0.00379705
0.00469512
0.00551006
0.00610038
0.00634187
0.00616058
-0.0010458
-0.00108943
-0.00108404
-0.00105077
-0.000991356
-0.000899624
-0.000767384
-0.000583865
-0.000335105
-3.55779e-06
0.000432038
0.00099584
0.00171303
0.00258142
0.00361862
0.00475798
0.00585439
0.00668374
0.00701423
0.00669138
-0.0014097
-0.0014608
-0.0014665
-0.00145049
-0.00141541
-0.00135527
-0.00126167
-0.001123
-0.000923429
-0.0006418
-0.000250458
0.000285567
0.00100524
0.00193774
0.00314229
0.00457709
0.00608835
0.0073316
0.0078372
0.00729754
-0.00182203
-0.00188171
-0.0019001
-0.00190455
-0.00189948
-0.00188
-0.00183864
-0.0017645
-0.00164182
-0.00144836
-0.00115296
-0.000712472
-6.92438e-05
0.000850505
0.00209218
0.0037846
0.00585159
0.00782603
0.00871648
0.00803786
-0.00227988
-0.00234886
-0.00238033
-0.00240696
-0.00243626
-0.00246568
-0.00249026
-0.002502
-0.00248847
-0.00243124
-0.00230319
-0.00206469
-0.00166012
-0.0010137
-4.57981e-06
0.00157793
0.00410627
0.00717471
0.00901063
0.00900762
-0.00278089
-0.00285908
-0.00290151
-0.0029489
-0.0030137
-0.00309717
-0.00319865
-0.0033156
-0.00344321
-0.00357394
-0.0036967
-0.00379701
-0.00386666
-0.00392299
-0.00393445
-0.00345532
-0.00145114
0.00258964
0.00660413
0.00947524
-0.00332508
-0.00341076
-0.0034575
-0.00351865
-0.00361439
-0.00375119
-0.00393402
-0.00416817
-0.00446059
-0.00482254
-0.00527401
-0.00585398
-0.00666473
-0.00798312
-0.0101674
-0.0127165
-0.0131641
-0.00918102
-0.00202255
0.00636325
-0.00391825
-0.00400568
-0.00404181
-0.00410118
-0.00421529
-0.00439622
-0.00465468
-0.00500461
-0.00546699
-0.00607707
-0.00689786
-0.00804796
-0.00978777
-0.0127427
-0.0178262
-0.0246873
-0.0291782
-0.026297
-0.0168218
-0.00299733
-0.00458163
-0.00465961
-0.00465704
-0.00468364
-0.00479087
-0.00499541
-0.00531067
-0.00575678
-0.00636658
-0.00719678
-0.00835032
-0.0100246
-0.0126237
-0.016991
-0.02436
-0.0345321
-0.0429709
-0.0415544
-0.031605
-0.0146129
-0.00535184
-0.00538197
-0.00527406
-0.00522635
-0.00530006
-0.00550415
-0.00584856
-0.00635479
-0.00706138
-0.00803591
-0.00939913
-0.0113812
-0.0144596
-0.0194468
-0.0274283
-0.0381329
-0.0483328
-0.0475723
-0.0387762
-0.0191639
-0.0062803
-0.00630546
-0.00601384
-0.00578675
-0.00575459
-0.00590887
-0.00623837
-0.00675285
-0.00748612
-0.00850322
-0.00992217
-0.0119179
-0.0150048
-0.0199158
-0.0273087
-0.0364591
-0.0442352
-0.0436072
-0.0350775
-0.00765492
-0.00828939
-0.00743787
-0.00641208
-0.00599066
-0.00592911
-0.0060759
-0.00639897
-0.00689931
-0.00761161
-0.00859604
-0.00999688
-0.0117114
-0.0146422
-0.0189771
-0.0250023
-0.0315978
-0.0361724
-0.0322679
-0.0154839
0.0290851
-0.00754306
-0.0095123
-0.007934
-0.00693412
-0.00651346
-0.00646343
-0.00665403
-0.00703435
-0.00764231
-0.00850028
-0.00973393
-0.0114523
-0.0141479
-0.0178839
-0.0226625
-0.0265793
-0.0265053
-0.0121244
0.0266534
0.100789
-0.0252017
-0.0102592
-0.00529944
-0.00440799
-0.00441088
-0.00455808
-0.00488296
-0.0053987
-0.0061757
-0.00718523
-0.00863264
-0.0105912
-0.0134819
-0.0170937
-0.0207605
-0.0210882
-0.0116551
0.0205194
0.0908743
0.200059
)
;

boundaryField
{
    movingWall
    {
        type            zeroGradient;
    }
    fixedWalls
    {
        type            zeroGradient;
    }
    frontAndBack
    {
        type            empty;
    }
}


// ************************************************************************* //
