/*--------------------------------*- C++ -*----------------------------------*\
| =========                 |                                                 |
| \\      /  F ield         | OpenFOAM: The Open Source CFD Toolbox           |
|  \\    /   O peration     | Version:  2212                                  |
|   \\  /    A nd           | Website:  www.openfoam.com                      |
|    \\/     M anipulation  |                                                 |
\*---------------------------------------------------------------------------*/
FoamFile
{
    version     2.0;
    format      ascii;
    arch        "LSB;label=32;scalar=64";
    class       volVectorField;
    location    "4.64";
    object      U;
}
// * * * * * * * * * * * * * * * * * * * * * * * * * * * * * * * * * * * * * //

dimensions      [0 1 -1 0 0 0 0];

internalField   nonuniform List<vector> 
400
(
(0.00166925 -0.00167307 0)
(0.00479811 -0.00187876 0)
(0.00652774 -0.00119305 0)
(0.00560477 -0.000569906 0)
(0.00150938 0.000188695 0)
(-0.0068624 0.00173826 0)
(-0.0205813 0.00476468 0)
(-0.0394265 0.00868834 0)
(-0.0606086 0.0112393 0)
(-0.0788892 0.0104816 0)
(-0.0895753 0.00677372 0)
(-0.0902833 0.00169171 0)
(-0.0801431 -0.00357627 0)
(-0.06002 -0.00822932 0)
(-0.0336498 -0.0108085 0)
(-0.0054916 -0.00977712 0)
(0.0165073 -0.00479851 0)
(0.0243023 0.00273767 0)
(0.0161046 0.00643487 0)
(0.00430436 0.00469835 0)
(0.00169731 -0.00501794 0)
(0.00309857 -0.00398166 0)
(-0.000500485 0.000609145 0)
(-0.0113876 0.0064325 0)
(-0.0314024 0.0140013 0)
(-0.0609872 0.0236672 0)
(-0.096526 0.0329047 0)
(-0.131016 0.0369369 0)
(-0.158463 0.0334126 0)
(-0.175585 0.0233697 0)
(-0.18097 0.00915028 0)
(-0.174669 -0.00688957 0)
(-0.157255 -0.0230287 0)
(-0.129463 -0.0367539 0)
(-0.093551 -0.0444255 0)
(-0.0522513 -0.0417586 0)
(-0.0115388 -0.0263527 0)
(0.0167215 -0.00138014 0)
(0.0177763 0.0161142 0)
(0.00552544 0.0147574 0)
(-0.000261481 -0.00569127 0)
(-0.00542188 0.000878626 0)
(-0.0196223 0.0142896 0)
(-0.0444181 0.0311237 0)
(-0.080086 0.04923 0)
(-0.12176 0.0640353 0)
(-0.161749 0.0702574 0)
(-0.194563 0.0657978 0)
(-0.218092 0.0520551 0)
(-0.231741 0.0315105 0)
(-0.23552 0.00650745 0)
(-0.230089 -0.0209189 0)
(-0.21576 -0.0486002 0)
(-0.192027 -0.0729198 0)
(-0.158622 -0.0887423 0)
(-0.11551 -0.0890328 0)
(-0.0644929 -0.0669788 0)
(-0.0138949 -0.0227969 0)
(0.00942247 0.0177443 0)
(0.00415347 0.0234787 0)
(-0.00347121 0.000556152 0)
(-0.0174814 0.0172789 0)
(-0.0433898 0.041376 0)
(-0.0793889 0.0679078 0)
(-0.122459 0.090759 0)
(-0.165168 0.103412 0)
(-0.201101 0.102511 0)
(-0.228322 0.0893742 0)
(-0.247094 0.0671545 0)
(-0.258019 0.0385538 0)
(-0.261937 0.00544674 0)
(-0.25965 -0.0308373 0)
(-0.251094 -0.0680577 0)
(-0.235223 -0.103277 0)
(-0.210044 -0.131024 0)
(-0.172856 -0.142505 0)
(-0.121102 -0.125547 0)
(-0.0567595 -0.0708712 0)
(-0.00103333 0.00337384 0)
(0.00474025 0.0281134 0)
(-0.00663827 0.0148423 0)
(-0.0286136 0.0440382 0)
(-0.0630181 0.0768025 0)
(-0.103988 0.108445 0)
(-0.146605 0.13064 0)
(-0.183747 0.137632 0)
(-0.211965 0.129014 0)
(-0.231651 0.108374 0)
(-0.244097 0.0795732 0)
(-0.251029 0.0453987 0)
(-0.254141 0.00738493 0)
(-0.254358 -0.0336635 0)
(-0.251458 -0.0765929 0)
(-0.244883 -0.12009 0)
(-0.231819 -0.160191 0)
(-0.207645 -0.188447 0)
(-0.166321 -0.189534 0)
(-0.10317 -0.142669 0)
(-0.0221783 -0.0389681 0)
(0.00734792 0.0269511 0)
(-0.00846557 0.0348308 0)
(-0.0349961 0.076411 0)
(-0.0727207 0.11448 0)
(-0.112687 0.14705 0)
(-0.149772 0.165317 0)
(-0.178503 0.165286 0)
(-0.197917 0.149168 0)
(-0.209558 0.122039 0)
(-0.215415 0.0882455 0)
(-0.217972 0.0507755 0)
(-0.21921 0.0110933 0)
(-0.220137 -0.0303876 0)
(-0.220955 -0.0741498 0)
(-0.221754 -0.120583 0)
(-0.220331 -0.168472 0)
(-0.211583 -0.212328 0)
(-0.187419 -0.237949 0)
(-0.139257 -0.218073 0)
(-0.0626499 -0.118767 0)
(0.00578915 0.0140918 0)
(-0.00823827 0.0568335 0)
(-0.0351303 0.109614 0)
(-0.0714267 0.14985 0)
(-0.106479 0.180377 0)
(-0.135964 0.193031 0)
(-0.156254 0.185685 0)
(-0.168048 0.162618 0)
(-0.173459 0.129966 0)
(-0.1749 0.0925024 0)
(-0.174885 0.0532471 0)
(-0.174939 0.0134378 0)
(-0.175751 -0.0268857 0)
(-0.17787 -0.0688827 0)
(-0.181831 -0.113853 0)
(-0.186971 -0.162922 0)
(-0.189633 -0.214936 0)
(-0.181907 -0.260892 0)
(-0.153798 -0.274537 0)
(-0.0990496 -0.205475 0)
(-0.00889239 -0.0146935 0)
(-0.00608693 0.0772932 0)
(-0.0295923 0.140001 0)
(-0.0610433 0.180429 0)
(-0.0893526 0.207395 0)
(-0.111236 0.213961 0)
(-0.124665 0.19969 0)
(-0.131229 0.170547 0)
(-0.133231 0.13351 0)
(-0.133134 0.0935823 0)
(-0.132899 0.0534874 0)
(-0.133227 0.013948 0)
(-0.134311 -0.0254178 0)
(-0.136615 -0.0656551 0)
(-0.140829 -0.108017 0)
(-0.147554 -0.154507 0)
(-0.155451 -0.20749 0)
(-0.158503 -0.264979 0)
(-0.146327 -0.307364 0)
(-0.111921 -0.276595 0)
(-0.0308363 -0.0751729 0)
(-0.00269931 0.0931894 0)
(-0.0202619 0.164945 0)
(-0.0448437 0.204687 0)
(-0.0659094 0.227543 0)
(-0.0810759 0.228491 0)
(-0.0894712 0.208556 0)
(-0.0929823 0.174877 0)
(-0.0937476 0.134948 0)
(-0.0938735 0.0937901 0)
(-0.094545 0.053649 0)
(-0.0958201 0.0146173 0)
(-0.0976087 -0.024103 0)
(-0.100087 -0.0633166 0)
(-0.103764 -0.103749 0)
(-0.109788 -0.147066 0)
(-0.118876 -0.19724 0)
(-0.127841 -0.258693 0)
(-0.126192 -0.322571 0)
(-0.107217 -0.333982 0)
(-0.0372277 -0.162904 0)
(0.0012223 0.102247 0)
(-0.00885528 0.182669 0)
(-0.0254473 0.222138 0)
(-0.0393541 0.241631 0)
(-0.04876 0.238381 0)
(-0.0535594 0.214449 0)
(-0.0554319 0.177749 0)
(-0.0560294 0.136148 0)
(-0.0568781 0.0945879 0)
(-0.0585338 0.0547832 0)
(-0.0607723 0.0162693 0)
(-0.063447 -0.0220286 0)
(-0.0665541 -0.0607875 0)
(-0.0702814 -0.100275 0)
(-0.0755711 -0.141237 0)
(-0.0840042 -0.187381 0)
(-0.0956598 -0.247061 0)
(-0.100436 -0.323341 0)
(-0.0950099 -0.37139 0)
(-0.0308637 -0.24189 0)
(0.00508661 0.10338 0)
(0.00296001 0.192194 0)
(-0.00532737 0.232563 0)
(-0.0123922 0.249598 0)
(-0.0167418 0.243496 0)
(-0.0185873 0.217313 0)
(-0.0192206 0.179299 0)
(-0.0196862 0.137315 0)
(-0.0209306 0.0960569 0)
(-0.02313 0.0568581 0)
(-0.0259924 0.0189776 0)
(-0.0294504 -0.0187535 0)
(-0.0335212 -0.0570539 0)
(-0.038158 -0.0960349 0)
(-0.0439178 -0.135679 0)
(-0.0520605 -0.178466 0)
(-0.0654947 -0.234179 0)
(-0.0741294 -0.317014 0)
(-0.0811249 -0.395841 0)
(-0.0229176 -0.306361 0)
(0.00838559 0.0969366 0)
(0.0141272 0.193163 0)
(0.0140172 0.236059 0)
(0.013629 0.252351 0)
(0.0142534 0.245248 0)
(0.0154521 0.218569 0)
(0.0163172 0.180567 0)
(0.0163766 0.138946 0)
(0.0152342 0.0982063 0)
(0.0129439 0.0596174 0)
(0.00977391 0.0224711 0)
(0.00568874 -0.0143995 0)
(0.00054418 -0.0518349 0)
(-0.0055288 -0.0899891 0)
(-0.0129386 -0.128536 0)
(-0.0218751 -0.168557 0)
(-0.03764 -0.219119 0)
(-0.048781 -0.303331 0)
(-0.0679231 -0.407609 0)
(-0.014469 -0.359237 0)
(0.0102226 0.0840594 0)
(0.0232294 0.185606 0)
(0.0308475 0.232201 0)
(0.0367391 0.24891 0)
(0.0423623 0.242042 0)
(0.0472779 0.216288 0)
(0.0506733 0.179583 0)
(0.0523011 0.139282 0)
(0.052114 0.0997159 0)
(0.0503295 0.0622234 0)
(0.04719 0.0262782 0)
(0.0426007 -0.00922539 0)
(0.0363868 -0.0452184 0)
(0.0286541 -0.0819224 0)
(0.0186206 -0.118999 0)
(0.00739094 -0.156734 0)
(-0.0119489 -0.2028 0)
(-0.0244299 -0.285312 0)
(-0.0559412 -0.410156 0)
(-0.00617021 -0.401141 0)
(0.00976319 0.0669717 0)
(0.0287663 0.169907 0)
(0.0439918 0.221187 0)
(0.05645 0.240139 0)
(0.067663 0.235173 0)
(0.0772702 0.21184 0)
(0.0844078 0.177613 0)
(0.0887725 0.139386 0)
(0.0904444 0.101416 0)
(0.0897374 0.0652688 0)
(0.0869893 0.030793 0)
(0.0819602 -0.00304389 0)
(0.0745132 -0.0368545 0)
(0.0649218 -0.0712475 0)
(0.0518338 -0.106046 0)
(0.0370591 -0.141172 0)
(0.0127818 -0.182703 0)
(-0.000231256 -0.262123 0)
(-0.0449589 -0.405936 0)
(0.00271103 -0.435629 0)
(0.00684518 0.0493212 0)
(0.0290691 0.148361 0)
(0.0506595 0.202725 0)
(0.0694103 0.223478 0)
(0.0867685 0.220572 0)
(0.102347 0.200443 0)
(0.114899 0.169924 0)
(0.123743 0.135156 0)
(0.128795 0.10014 0)
(0.130319 0.0665714 0)
(0.128589 0.0346849 0)
(0.123667 0.00365082 0)
(0.115083 -0.0268823 0)
(0.103462 -0.0577834 0)
(0.086566 -0.0891195 0)
(0.067576 -0.121527 0)
(0.0377464 -0.159447 0)
(0.0234866 -0.23613 0)
(-0.0346425 -0.398291 0)
(0.0133927 -0.463945 0)
(0.00235423 0.0347038 0)
(0.0233838 0.12352 0)
(0.0504842 0.179224 0)
(0.0760374 0.202031 0)
(0.100541 0.201651 0)
(0.123267 0.185266 0)
(0.142568 0.15928 0)
(0.157228 0.128966 0)
(0.166837 0.0979368 0)
(0.171616 0.0678913 0)
(0.171523 0.0394144 0)
(0.16728 0.0120841 0)
(0.157505 -0.0144644 0)
(0.143887 -0.0409808 0)
(0.122794 -0.0677788 0)
(0.0994822 -0.0964085 0)
(0.0639043 -0.131538 0)
(0.0466003 -0.206639 0)
(-0.0229438 -0.386628 0)
(0.0284161 -0.485247 0)
(-0.00340554 0.028805 0)
(0.00988984 0.101354 0)
(0.0366895 0.14818 0)
(0.0683442 0.168742 0)
(0.101041 0.169882 0)
(0.132569 0.157598 0)
(0.160381 0.137226 0)
(0.182751 0.112929 0)
(0.198648 0.0877854 0)
(0.208442 0.0633239 0)
(0.211297 0.0402867 0)
(0.209006 0.0185347 0)
(0.19881 -0.00230303 0)
(0.184295 -0.0227277 0)
(0.159696 -0.0432219 0)
(0.133333 -0.0668782 0)
(0.0921276 -0.100809 0)
(0.0694779 -0.179357 0)
(-0.0045915 -0.369769 0)
(0.05205 -0.49149 0)
(-0.0138843 0.0187038 0)
(-0.00750144 0.0882104 0)
(0.0189656 0.123946 0)
(0.0559501 0.136874 0)
(0.0968491 0.136365 0)
(0.136984 0.127161 0)
(0.173007 0.112537 0)
(0.202638 0.0948306 0)
(0.224366 0.0764643 0)
(0.239314 0.058443 0)
(0.245286 0.0417266 0)
(0.246175 0.0261881 0)
(0.236926 0.0119958 0)
(0.225219 -0.00166733 0)
(0.200457 -0.0155893 0)
(0.176766 -0.0344738 0)
(0.132757 -0.0672516 0)
(0.107432 -0.145683 0)
(0.0372889 -0.326081 0)
(0.0922934 -0.455856 0)
(-0.10593 0.0825493 0)
(-0.0776816 0.0690993 0)
(-0.0485957 0.0732798 0)
(0.00356059 0.0776751 0)
(0.0568409 0.0779368 0)
(0.109331 0.073649 0)
(0.156275 0.0663307 0)
(0.198423 0.0569676 0)
(0.230379 0.0473583 0)
(0.258404 0.0377762 0)
(0.274088 0.0291987 0)
(0.289235 0.0212936 0)
(0.289674 0.0146194 0)
(0.293905 0.00829385 0)
(0.277834 0.0013837 0)
(0.270852 -0.00975622 0)
(0.231781 -0.0353434 0)
(0.217898 -0.0953202 0)
(0.150164 -0.229722 0)
(0.170664 -0.341479 0)
(0.130019 0.103779 0)
(0.158426 0.0753237 0)
(0.212335 0.0533362 0)
(0.270836 0.0417081 0)
(0.323337 0.0359676 0)
(0.375651 0.0319759 0)
(0.420103 0.0289285 0)
(0.465274 0.0255863 0)
(0.49825 0.0229114 0)
(0.533408 0.0197254 0)
(0.552801 0.0175741 0)
(0.578608 0.0146465 0)
(0.58479 0.0132146 0)
(0.603214 0.0104049 0)
(0.594755 0.00944999 0)
(0.603394 0.00505935 0)
(0.567724 0.000137529 0)
(0.547685 -0.018287 0)
(0.435831 -0.0504135 0)
(0.336821 -0.101399 0)
)
;

boundaryField
{
    movingWall
    {
        type            fixedValue;
        value           uniform (1 0 0);
    }
    fixedWalls
    {
        type            noSlip;
    }
    frontAndBack
    {
        type            empty;
    }
}


// ************************************************************************* //
