/*--------------------------------*- C++ -*----------------------------------*\
| =========                 |                                                 |
| \\      /  F ield         | OpenFOAM: The Open Source CFD Toolbox           |
|  \\    /   O peration     | Version:  2212                                  |
|   \\  /    A nd           | Website:  www.openfoam.com                      |
|    \\/     M anipulation  |                                                 |
\*---------------------------------------------------------------------------*/
FoamFile
{
    version     2.0;
    format      ascii;
    arch        "LSB;label=32;scalar=64";
    class       surfaceScalarField;
    location    "1.885";
    object      phi;
}
// * * * * * * * * * * * * * * * * * * * * * * * * * * * * * * * * * * * * * //

dimensions      [0 3 -1 0 0 0 0];

oriented        oriented;

internalField   nonuniform List<scalar> 
760
(
8.6488e-08
-8.64904e-08
1.43071e-07
-5.65833e-08
1.24199e-07
1.88731e-08
9.1858e-09
1.15013e-07
-2.3497e-07
2.44156e-07
-6.55119e-07
4.20149e-07
-1.27806e-06
6.2294e-07
-2.06108e-06
7.83024e-07
-2.86988e-06
8.08795e-07
-3.51934e-06
6.49465e-07
-3.84729e-06
3.27946e-07
-3.76023e-06
-8.70601e-08
-3.17467e-06
-5.85558e-07
-2.17957e-06
-9.951e-07
-9.68663e-07
-1.21091e-06
1.37693e-07
-1.10636e-06
8.17263e-07
-6.79571e-07
8.29292e-07
-1.20287e-08
3.81764e-07
4.47528e-07
3.81764e-07
1.90917e-08
-1.05582e-07
-1.03411e-07
6.59202e-08
-4.30859e-07
3.4632e-07
-1.03516e-06
7.19313e-07
-1.97123e-06
1.18023e-06
-3.21824e-06
1.66716e-06
-4.63269e-06
2.03738e-06
-5.98052e-06
2.13086e-06
-7.03986e-06
1.86814e-06
-7.66857e-06
1.27817e-06
-7.79919e-06
4.58566e-07
-7.38698e-06
-4.99266e-07
-6.45769e-06
-1.51485e-06
-5.03872e-06
-2.41408e-06
-3.26078e-06
-2.98885e-06
-1.39869e-06
-2.96844e-06
6.89464e-08
-2.14721e-06
7.03675e-07
-6.46757e-07
4.47552e-07
7.0365e-07
8.29316e-07
-1.73306e-07
6.77246e-08
-6.27944e-07
5.20559e-07
-1.40423e-06
1.12261e-06
-2.55971e-06
1.87479e-06
-4.06555e-06
2.68607e-06
-5.75187e-06
3.35347e-06
-7.36858e-06
3.65409e-06
-8.71238e-06
3.47467e-06
-9.68225e-06
2.838e-06
-1.02406e-05
1.83648e-06
-1.03469e-05
5.64874e-07
-9.99794e-06
-8.48185e-07
-9.1994e-06
-2.31338e-06
-7.90672e-06
-3.70676e-06
-6.10495e-06
-4.79062e-06
-3.89847e-06
-5.17491e-06
-1.65141e-06
-4.39428e-06
-7.56727e-08
-2.22249e-06
2.73081e-07
3.54897e-07
1.1024e-06
-4.18876e-07
4.86601e-07
-1.2599e-06
1.36158e-06
-2.46241e-06
2.32511e-06
-4.01641e-06
3.4288e-06
-5.78934e-06
4.45901e-06
-7.54982e-06
5.11394e-06
-9.08525e-06
5.18953e-06
-1.02874e-05
4.67684e-06
-1.11404e-05
3.69102e-06
-1.16575e-05
2.35356e-06
-1.18236e-05
7.30982e-07
-1.16583e-05
-1.01355e-06
-1.11545e-05
-2.81711e-06
-1.02186e-05
-4.6427e-06
-8.73607e-06
-6.27315e-06
-6.60085e-06
-7.31014e-06
-3.88916e-06
-7.10596e-06
-1.20068e-06
-4.91098e-06
1.16948e-07
-9.62731e-07
1.21934e-06
-6.55605e-07
1.14221e-06
-1.8114e-06
2.51738e-06
-3.28959e-06
3.8033e-06
-5.00346e-06
5.14267e-06
-6.76463e-06
6.22017e-06
-8.35622e-06
6.70553e-06
-9.64274e-06
6.47605e-06
-1.0593e-05
5.62715e-06
-1.12352e-05
4.3332e-06
-1.16198e-05
2.73813e-06
-1.18067e-05
9.17909e-07
-1.18125e-05
-1.00772e-06
-1.16285e-05
-3.00111e-06
-1.11756e-05
-5.0956e-06
-1.02836e-05
-7.16524e-06
-8.69212e-06
-8.90157e-06
-6.16079e-06
-9.6373e-06
-2.84594e-06
-8.22583e-06
-2.22389e-07
-3.58628e-06
9.96955e-07
-8.03087e-07
1.94529e-06
-2.12292e-06
3.83721e-06
-3.67462e-06
5.355e-06
-5.31782e-06
6.78587e-06
-6.86185e-06
7.76421e-06
-8.142e-06
7.98567e-06
-9.08744e-06
7.42149e-06
-9.71506e-06
6.25477e-06
-1.00865e-05
4.70467e-06
-1.02843e-05
2.93591e-06
-1.04113e-05
1.04491e-06
-1.05047e-05
-9.14373e-07
-1.05539e-05
-2.95192e-06
-1.05365e-05
-5.11298e-06
-1.03047e-05
-7.39706e-06
-9.54167e-06
-9.66456e-06
-7.79344e-06
-1.13855e-05
-4.72874e-06
-1.12905e-05
-1.01244e-06
-7.30258e-06
-1.54881e-08
-8.17798e-07
2.76309e-06
-2.12551e-06
5.14493e-06
-3.56913e-06
6.79862e-06
-4.98586e-06
8.20261e-06
-6.21788e-06
8.99622e-06
-7.15472e-06
8.92252e-06
-7.7733e-06
8.04008e-06
-8.12082e-06
6.60229e-06
-8.28e-06
4.86385e-06
-8.34279e-06
2.9987e-06
-8.3954e-06
1.09752e-06
-8.48505e-06
-8.24729e-07
-8.62415e-06
-2.81282e-06
-8.83229e-06
-4.90484e-06
-9.05197e-06
-7.17738e-06
-9.03902e-06
-9.6775e-06
-8.27763e-06
-1.21469e-05
-6.07488e-06
-1.34933e-05
-2.16756e-06
-1.12099e-05
-2.18305e-06
-6.98059e-07
3.46115e-06
-1.84165e-06
6.28852e-06
-3.05632e-06
8.01328e-06
-4.17697e-06
9.32326e-06
-5.08949e-06
9.90873e-06
-5.73199e-06
9.56502e-06
-6.11383e-06
8.42192e-06
-6.29735e-06
6.7858e-06
-6.36722e-06
4.93372e-06
-6.40173e-06
3.03321e-06
-6.44738e-06
1.14318e-06
-6.52424e-06
-7.47874e-07
-6.65814e-06
-2.67892e-06
-6.89375e-06
-4.66923e-06
-7.25799e-06
-6.81314e-06
-7.65269e-06
-9.2828e-06
-7.63854e-06
-1.21611e-05
-6.40015e-06
-1.47317e-05
-3.27685e-06
-1.43332e-05
-5.4599e-06
-4.75341e-07
3.93649e-06
-1.35272e-06
7.1659e-06
-2.27727e-06
8.93783e-06
-3.08982e-06
1.01358e-05
-3.71731e-06
1.05362e-05
-4.13704e-06
9.98475e-06
-4.37682e-06
8.6617e-06
-4.49841e-06
6.90739e-06
-4.57201e-06
5.00732e-06
-4.64642e-06
3.10761e-06
-4.73384e-06
1.23061e-06
-4.82818e-06
-6.53543e-07
-4.94586e-06
-2.56123e-06
-5.12877e-06
-4.48632e-06
-5.4595e-06
-6.48242e-06
-5.96263e-06
-8.77967e-06
-6.3838e-06
-1.17399e-05
-5.94176e-06
-1.51737e-05
-3.74069e-06
-1.65343e-05
-9.20059e-06
-1.9066e-07
4.12715e-06
-7.45337e-07
7.72058e-06
-1.3568e-06
9.54929e-06
-1.87435e-06
1.06534e-05
-2.25592e-06
1.09178e-05
-2.50728e-06
1.02361e-05
-2.66223e-06
8.81665e-06
-2.7691e-06
7.01426e-06
-2.87293e-06
5.11115e-06
-2.99664e-06
3.23132e-06
-3.13606e-06
1.37003e-06
-3.27459e-06
-5.15011e-07
-3.41114e-06
-2.42469e-06
-3.56827e-06
-4.32919e-06
-3.82834e-06
-6.22235e-06
-4.3097e-06
-8.29831e-06
-4.93933e-06
-1.11103e-05
-5.05073e-06
-1.50623e-05
-3.48559e-06
-1.80994e-05
-1.26862e-05
1.02368e-07
4.02478e-06
-1.01683e-07
7.92463e-06
-4.06068e-07
9.85368e-06
-6.52005e-07
1.08993e-05
-8.14368e-07
1.10802e-05
-9.14689e-07
1.03364e-05
-9.89736e-07
8.8917e-06
-1.07408e-06
7.09861e-06
-1.18776e-06
5.22483e-06
-1.33425e-06
3.37781e-06
-1.50729e-06
1.54306e-06
-1.69662e-06
-3.25674e-07
-1.89013e-06
-2.23118e-06
-2.09312e-06
-4.1262e-06
-2.3537e-06
-5.96177e-06
-2.81041e-06
-7.84159e-06
-3.53496e-06
-1.03857e-05
-4.02137e-06
-1.45759e-05
-3.00989e-06
-1.91109e-05
-1.56961e-05
3.43378e-07
3.6814e-06
4.80754e-07
7.78726e-06
5.04051e-07
9.83038e-06
5.38413e-07
1.08649e-05
5.98209e-07
1.10204e-05
6.52587e-07
1.02821e-05
6.68879e-07
8.8754e-06
6.31907e-07
7.13558e-06
5.41575e-07
5.31516e-06
4.04577e-07
3.51481e-06
2.25154e-07
1.72248e-06
2.59704e-09
-1.03117e-07
-2.65494e-07
-1.96309e-06
-5.73014e-07
-3.81868e-06
-9.36864e-07
-5.59792e-06
-1.43323e-06
-7.34523e-06
-2.23904e-06
-9.57991e-06
-3.01114e-06
-1.38038e-05
-2.49396e-06
-1.96281e-05
-1.819e-05
5.17843e-07
3.16356e-06
9.67304e-07
7.33779e-06
1.29284e-06
9.50484e-06
1.6106e-06
1.05472e-05
1.91874e-06
1.07122e-05
2.16228e-06
1.00385e-05
2.30859e-06
8.72909e-06
2.358e-06
7.08618e-06
2.32642e-06
5.34674e-06
2.22574e-06
3.6155e-06
2.05283e-06
1.89538e-06
1.78837e-06
1.6135e-07
1.44359e-06
-1.61831e-06
1.01443e-06
-3.38952e-06
5.02564e-07
-5.08606e-06
-1.63277e-07
-6.67939e-06
-1.05687e-06
-8.68632e-06
-2.04155e-06
-1.28191e-05
-1.98727e-06
-1.96823e-05
-2.01773e-05
5.90002e-07
2.57356e-06
1.2921e-06
6.6357e-06
1.90331e-06
8.89363e-06
2.50196e-06
9.94853e-06
3.07496e-06
1.01392e-05
3.55384e-06
9.55963e-06
3.89155e-06
8.39138e-06
4.08424e-06
6.89349e-06
4.15159e-06
5.27939e-06
4.1098e-06
3.65729e-06
3.95457e-06
2.05062e-06
3.66941e-06
4.46512e-07
3.2392e-06
-1.18811e-06
2.6686e-06
-2.81892e-06
1.96424e-06
-4.3817e-06
1.14335e-06
-5.85849e-06
9.13623e-08
-7.63433e-06
-1.13243e-06
-1.15953e-05
-1.51246e-06
-1.93023e-05
-2.16898e-05
5.3522e-07
2.03834e-06
1.3656e-06
5.80532e-06
2.20879e-06
8.05044e-06
3.08373e-06
9.07359e-06
3.95136e-06
9.2716e-06
4.72008e-06
8.79091e-06
5.31775e-06
7.79371e-06
5.72248e-06
6.48876e-06
5.94505e-06
5.05681e-06
6.0009e-06
3.60144e-06
5.88879e-06
2.16273e-06
5.59021e-06
7.45093e-07
5.07937e-06
-6.77266e-07
4.36792e-06
-2.10747e-06
3.45872e-06
-3.4725e-06
2.39976e-06
-4.79953e-06
1.13819e-06
-6.37276e-06
-3.21713e-07
-1.01354e-05
-1.03563e-06
-1.85884e-05
-2.27254e-05
3.6576e-07
1.67258e-06
1.18171e-06
4.98937e-06
2.22798e-06
7.00418e-06
3.38103e-06
7.92053e-06
4.55928e-06
8.09335e-06
5.64659e-06
7.7036e-06
6.54457e-06
6.89572e-06
7.20836e-06
5.82497e-06
7.63141e-06
4.63377e-06
7.82092e-06
3.41193e-06
7.7772e-06
2.20644e-06
7.49272e-06
1.02957e-06
6.90981e-06
-9.4354e-08
6.0667e-06
-1.26436e-06
4.95399e-06
-2.3598e-06
3.64454e-06
-3.49008e-06
2.19662e-06
-4.92483e-06
6.39906e-07
-8.57871e-06
-3.06642e-07
-1.76419e-05
-2.3032e-05
1.79941e-08
1.65459e-06
5.5409e-07
4.45327e-06
1.67599e-06
5.88228e-06
3.10303e-06
6.49348e-06
4.63348e-06
6.56291e-06
6.0889e-06
6.24818e-06
7.33915e-06
5.64548e-06
8.32064e-06
4.84347e-06
9.00254e-06
3.95187e-06
9.38202e-06
3.03245e-06
9.44787e-06
2.14059e-06
9.19926e-06
1.27819e-06
8.63128e-06
4.73624e-07
7.696e-06
-3.29084e-07
6.45413e-06
-1.11793e-06
4.96522e-06
-2.00117e-06
3.41099e-06
-3.37059e-06
1.91718e-06
-7.08489e-06
5.23964e-07
-1.62486e-05
-2.25081e-05
-4.45089e-07
2.09968e-06
-4.384e-08
4.05202e-06
1.05157e-06
4.78687e-06
2.66503e-06
4.88002e-06
4.47834e-06
4.7496e-06
6.23665e-06
4.48987e-06
7.78095e-06
4.10118e-06
9.03736e-06
3.58706e-06
9.95575e-06
3.03349e-06
1.05335e-05
2.45466e-06
1.0758e-05
1.91612e-06
1.06438e-05
1.39237e-06
1.0185e-05
9.3243e-07
9.39633e-06
4.59605e-07
8.31633e-06
-3.79267e-08
6.9921e-06
-6.76946e-07
5.64502e-06
-2.02351e-06
4.10147e-06
-5.54135e-06
1.90535e-06
-1.40525e-05
-2.06027e-05
-4.1036e-06
6.20328e-06
-3.67657e-06
3.62499e-06
-1.62027e-06
2.73057e-06
7.57351e-07
2.5024e-06
3.11664e-06
2.39032e-06
5.36695e-06
2.23955e-06
7.41188e-06
2.05625e-06
9.17933e-06
1.81961e-06
1.06253e-05
1.58755e-06
1.17515e-05
1.32843e-06
1.25563e-05
1.11132e-06
1.30708e-05
8.77815e-07
1.32909e-05
7.1234e-07
1.32445e-05
5.05996e-07
1.28797e-05
3.26944e-07
1.22418e-05
-3.90846e-08
1.13843e-05
-1.16605e-06
9.85649e-06
-4.01349e-06
5.53123e-06
-9.72726e-06
-1.50715e-05
6.20328e-06
9.82827e-06
1.25588e-05
1.50612e-05
1.74516e-05
1.96911e-05
2.17474e-05
2.3567e-05
2.51545e-05
2.6483e-05
2.75943e-05
2.84721e-05
2.91844e-05
2.96904e-05
3.00174e-05
2.99783e-05
2.88122e-05
2.47987e-05
1.50715e-05
)
;

boundaryField
{
    movingWall
    {
        type            calculated;
        value           uniform 0;
    }
    fixedWalls
    {
        type            calculated;
        value           uniform 0;
    }
    frontAndBack
    {
        type            empty;
        value           nonuniform List<scalar> 0();
    }
}


// ************************************************************************* //
