/*--------------------------------*- C++ -*----------------------------------*\
| =========                 |                                                 |
| \\      /  F ield         | OpenFOAM: The Open Source CFD Toolbox           |
|  \\    /   O peration     | Version:  2212                                  |
|   \\  /    A nd           | Website:  www.openfoam.com                      |
|    \\/     M anipulation  |                                                 |
\*---------------------------------------------------------------------------*/
FoamFile
{
    version     2.0;
    format      ascii;
    arch        "LSB;label=32;scalar=64";
    class       volVectorField;
    location    "0.015";
    object      U;
}
// * * * * * * * * * * * * * * * * * * * * * * * * * * * * * * * * * * * * * //

dimensions      [0 1 -1 0 0 0 0];

internalField   nonuniform List<vector> 
400
(
(-0.000133985 0.000132834 0)
(-0.000406538 0.000139643 0)
(-0.000679363 0.000133202 0)
(-0.000935151 0.000122744 0)
(-0.00116698 0.000109182 0)
(-0.001369 9.29671e-05 0)
(-0.00153643 7.4578e-05 0)
(-0.00166544 5.45089e-05 0)
(-0.00175318 3.32574e-05 0)
(-0.00179774 1.12893e-05 0)
(-0.00179813 -1.09457e-05 0)
(-0.00175433 -3.29634e-05 0)
(-0.00166725 -5.42723e-05 0)
(-0.00153873 -7.44067e-05 0)
(-0.00137156 -9.28966e-05 0)
(-0.00116958 -0.00010923 0)
(-0.0009376 -0.000122933 0)
(-0.000681207 -0.000133589 0)
(-0.000407706 -0.000140476 0)
(-0.000133906 -0.00013368 0)
(-0.00014792 0.000412871 0)
(-0.000449138 0.00043351 0)
(-0.000749647 0.000412677 0)
(-0.0010315 0.000380039 0)
(-0.00128665 0.000337908 0)
(-0.00150887 0.000287651 0)
(-0.00169293 0.000230731 0)
(-0.00183469 0.000168649 0)
(-0.00193106 0.000102905 0)
(-0.00197998 3.4957e-05 0)
(-0.00198042 -3.37712e-05 0)
(-0.00193237 -0.000101844 0)
(-0.00183676 -0.000167805 0)
(-0.00169549 -0.000230171 0)
(-0.00151167 -0.000287437 0)
(-0.00128948 -0.000338084 0)
(-0.00103404 -0.000380627 0)
(-0.000751456 -0.000413644 0)
(-0.000449973 -0.000435083 0)
(-0.000147853 -0.000414095 0)
(-0.000155212 0.000713688 0)
(-0.000472133 0.000749545 0)
(-0.000788331 0.000712821 0)
(-0.0010844 0.000656104 0)
(-0.00135198 0.000583047 0)
(-0.00158466 0.000496065 0)
(-0.00177709 0.000397716 0)
(-0.00192509 0.000290601 0)
(-0.00202561 0.00017729 0)
(-0.00207665 6.02579e-05 0)
(-0.00207716 -5.80931e-05 0)
(-0.00202715 -0.000175346 0)
(-0.00192752 -0.000289056 0)
(-0.0017801 -0.000396713 0)
(-0.00158795 -0.000495699 0)
(-0.00135531 -0.000583375 0)
(-0.00108743 -0.000657134 0)
(-0.000790679 -0.000714456 0)
(-0.000473584 -0.000751749 0)
(-0.000155605 -0.000715823 0)
(-0.000166705 0.00103427 0)
(-0.000507162 0.00108581 0)
(-0.000846459 0.00103191 0)
(-0.00116359 0.000949093 0)
(-0.00144951 0.000842704 0)
(-0.00169749 0.000716381 0)
(-0.00190209 0.000573926 0)
(-0.00205912 0.000419123 0)
(-0.00216561 0.000255637 0)
(-0.00221967 8.69586e-05 0)
(-0.00222033 -8.35415e-05 0)
(-0.00216754 -0.000252546 0)
(-0.00206212 -0.000416654 0)
(-0.00190582 -0.000572309 0)
(-0.00170161 -0.000715767 0)
(-0.00145371 -0.000843175 0)
(-0.00116741 -0.000950626 0)
(-0.000849438 -0.00103436 0)
(-0.000509042 -0.0010889 0)
(-0.000167326 -0.00103741 0)
(-0.000182877 0.00138217 0)
(-0.000556179 0.00145051 0)
(-0.000927567 0.0013774 0)
(-0.00127374 0.00126549 0)
(-0.00158477 0.00112226 0)
(-0.00185353 0.000952842 0)
(-0.00207445 0.000762494 0)
(-0.00224349 0.000556339 0)
(-0.00235789 0.000339181 0)
(-0.00241594 0.000115468 0)
(-0.00241678 -0.000110544 0)
(-0.00236037 -0.0003347 0)
(-0.00224738 -0.000552735 0)
(-0.00207931 -0.000760123 0)
(-0.0018589 -0.000951952 0)
(-0.00159024 -0.00112296 0)
(-0.00127874 -0.00126772 0)
(-0.000931494 -0.00138098 0)
(-0.000558658 -0.00145501 0)
(-0.000183688 -0.00138688 0)
(-0.000204365 0.00176755 0)
(-0.000621162 0.00185387 0)
(-0.00103478 0.00175843 0)
(-0.00141881 0.00161309 0)
(-0.00176216 0.001428 0)
(-0.00205727 0.00121025 0)
(-0.0022986 0.000966885 0)
(-0.00248243 0.000704541 0)
(-0.00260648 0.000429218 0)
(-0.0026694 0.000146242 0)
(-0.0026705 -0.000139441 0)
(-0.00260973 -0.000423041 0)
(-0.00248754 -0.000699558 0)
(-0.00230503 -0.000963552 0)
(-0.00206445 -0.00120896 0)
(-0.00176948 -0.00142895 0)
(-0.00142551 -0.00161624 0)
(-0.00104007 -0.00176351 0)
(-0.000624505 -0.00186031 0)
(-0.000205449 -0.00177426 0)
(-0.000232136 0.00220192 0)
(-0.000704992 0.00230754 0)
(-0.00117257 0.00218524 0)
(-0.00160429 0.00200027 0)
(-0.00198762 0.00176637 0)
(-0.00231465 0.00149328 0)
(-0.00258016 0.00119029 0)
(-0.00278116 0.00086576 0)
(-0.00291619 0.000526882 0)
(-0.0029846 0.000179714 0)
(-0.00298607 -0.000170401 0)
(-0.00292049 -0.000518385 0)
(-0.00278789 -0.000858852 0)
(-0.00258871 -0.00118559 0)
(-0.0023243 -0.00149134 0)
(-0.00199753 -0.00176754 0)
(-0.00161341 -0.00200454 0)
(-0.00117984 -0.00219224 0)
(-0.000709629 -0.00231655 0)
(-0.000233681 -0.00221131 0)
(-0.000267639 0.00269917 0)
(-0.000811864 0.00282531 0)
(-0.00134731 0.00266955 0)
(-0.00183782 0.00243619 0)
(-0.00226916 0.00214395 0)
(-0.00263335 0.00180626 0)
(-0.00292613 0.00143532 0)
(-0.00314585 0.00104146 0)
(-0.00329253 0.000632919 0)
(-0.00336668 0.000216193 0)
(-0.0033686 -0.000203482 0)
(-0.00329818 -0.000621236 0)
(-0.00315475 -0.00103183 0)
(-0.00293752 -0.00142868 0)
(-0.00264639 -0.00180339 0)
(-0.00228267 -0.00214535 0)
(-0.00185036 -0.00244194 0)
(-0.00135742 -0.0026792 0)
(-0.000818373 -0.00283785 0)
(-0.000269852 -0.00271231 0)
(-0.000313031 0.00327674 0)
(-0.000947928 0.00342412 0)
(-0.00156813 0.00322509 0)
(-0.00213006 0.0029308 0)
(-0.00261755 0.00256709 0)
(-0.00302328 0.00215263 0)
(-0.00334498 0.00170341 0)
(-0.00358356 0.00123195 0)
(-0.00374145 0.000747263 0)
(-0.00382101 0.000255663 0)
(-0.0038235 -0.000238514 0)
(-0.00374883 -0.000731439 0)
(-0.00359534 -0.00121873 0)
(-0.00336027 -0.00169414 0)
(-0.00304097 -0.00214842 0)
(-0.00263607 -0.00256871 0)
(-0.00214743 -0.00293849 0)
(-0.00158231 -0.00323842 0)
(-0.000957134 -0.00344163 0)
(-0.00031617 -0.0032952 0)
(-0.000371591 0.0039574 0)
(-0.00112243 0.00412547 0)
(-0.00184842 0.00386823 0)
(-0.00249603 0.00349464 0)
(-0.00304733 0.0030412 0)
(-0.00349704 0.00253403 0)
(-0.00384682 0.00199395 0)
(-0.004102 0.00143577 0)
(-0.00426882 0.00086866 0)
(-0.00435246 0.000297705 0)
(-0.00435571 -0.000274794 0)
(-0.0042784 -0.000847429 0)
(-0.00411745 -0.00141782 0)
(-0.00386722 -0.00198102 0)
(-0.00352097 -0.0025277 0)
(-0.00307275 -0.00304272 0)
(-0.00252028 -0.00350466 0)
(-0.00186853 -0.00388643 0)
(-0.00113564 -0.00414994 0)
(-0.000376099 -0.00398345 0)
(-0.000448496 0.00477223 0)
(-0.00134973 0.00495751 0)
(-0.00220834 0.00461853 0)
(-0.00295734 0.0041382 0)
(-0.00357818 0.00356938 0)
(-0.00407054 0.00294877 0)
(-0.00444324 0.00230302 0)
(-0.00470886 0.00164876 0)
(-0.00487953 0.000994175 0)
(-0.00496446 0.000341345 0)
(-0.00496863 -0.000311063 0)
(-0.00489186 -0.000965825 0)
(-0.00472893 -0.00162443 0)
(-0.00447015 -0.00228487 0)
(-0.00410267 -0.00293903 0)
(-0.00361304 -0.00357012 0)
(-0.0029914 -0.00415083 0)
(-0.00223724 -0.00464314 0)
(-0.00136907 -0.00499175 0)
(-0.000455158 -0.00480932 0)
(-0.000552319 0.00576574 0)
(-0.00165308 0.00595831 0)
(-0.00267903 0.00549924 0)
(-0.00354548 0.00487038 0)
(-0.00423678 0.00415005 0)
(-0.00476341 0.00338938 0)
(-0.00514683 0.0026213 0)
(-0.00541085 0.00186253 0)
(-0.00557625 0.00111812 0)
(-0.00565771 0.000384743 0)
(-0.00566288 -0.000345152 0)
(-0.00559177 -0.00108069 0)
(-0.00543649 -0.00182967 0)
(-0.00518182 -0.00259563 0)
(-0.00480622 -0.00337418 0)
(-0.00428456 -0.00414862 0)
(-0.00359362 -0.00488561 0)
(-0.00272113 -0.00553223 0)
(-0.001682 -0.0060065 0)
(-0.000562457 -0.00581931 0)
(-0.000698031 0.0070053 0)
(-0.00207159 0.00718099 0)
(-0.00330989 0.00653689 0)
(-0.0043069 0.00569488 0)
(-0.0050592 0.00477235 0)
(-0.0055993 0.00383859 0)
(-0.00597011 0.00293103 0)
(-0.00621204 0.00206275 0)
(-0.00635732 0.00123126 0)
(-0.00642775 0.000424723 0)
(-0.00643407 -0.000373716 0)
(-0.00637639 -0.00118239 0)
(-0.00624388 -0.00201846 0)
(-0.00601466 -0.00289467 0)
(-0.00565566 -0.00381462 0)
(-0.00512448 -0.00476598 0)
(-0.00437539 -0.00571158 0)
(-0.0033723 -0.00658024 0)
(-0.00211613 -0.0072492 0)
(-0.000714082 -0.00708427 0)
(-0.000913569 0.00859966 0)
(-0.00267451 0.00870122 0)
(-0.0041816 0.00775787 0)
(-0.00531048 0.00660205 0)
(-0.00609312 0.0054082 0)
(-0.00660476 0.00426361 0)
(-0.00692268 0.00320251 0)
(-0.00711063 0.00222683 0)
(-0.00721429 0.00131992 0)
(-0.0072627 0.00045668 0)
(-0.00727 -0.000392144 0)
(-0.00723653 -0.00125701 0)
(-0.00714878 -0.00216779 0)
(-0.00697799 -0.00315119 0)
(-0.00667754 -0.00422557 0)
(-0.00618153 -0.00539161 0)
(-0.00540836 -0.00661666 0)
(-0.00427608 -0.00781268 0)
(-0.00274598 -0.00879806 0)
(-0.000940458 -0.00871947 0)
(-0.00125526 0.0107378 0)
(-0.00359173 0.0106264 0)
(-0.00542917 0.00917647 0)
(-0.00665716 0.00755212 0)
(-0.00739771 0.00599896 0)
(-0.00780502 0.00460756 0)
(-0.0080069 0.00339028 0)
(-0.00809464 0.00232264 0)
(-0.00812748 0.00136525 0)
(-0.00813983 0.000474319 0)
(-0.00814777 -0.000394569 0)
(-0.00815205 -0.00128599 0)
(-0.00813808 -0.0022453 0)
(-0.00807245 -0.00331828 0)
(-0.0078961 -0.00454761 0)
(-0.00751558 -0.00596256 0)
(-0.00679703 -0.00755586 0)
(-0.00557514 -0.00924022 0)
(-0.00371225 -0.0107627 0)
(-0.0013037 -0.0109269 0)
(-0.00184679 0.0137767 0)
(-0.00508185 0.0130982 0)
(-0.00728084 0.0107594 0)
(-0.00848874 0.0084411 0)
(-0.00903771 0.00643459 0)
(-0.00921339 0.00478033 0)
(-0.00920753 0.0034297 0)
(-0.00913558 0.00230868 0)
(-0.00906252 0.00134418 0)
(-0.00902243 0.00046991 0)
(-0.00903022 -0.000374394 0)
(-0.00908717 -0.00124711 0)
(-0.00918099 -0.00220956 0)
(-0.00928022 -0.00333032 0)
(-0.00932174 -0.0046872 0)
(-0.00918969 -0.00636179 0)
(-0.00868656 -0.00841483 0)
(-0.00750981 -0.0108182 0)
(-0.00529679 -0.0132817 0)
(-0.00194205 -0.0140863 0)
(-0.00298421 0.0184553 0)
(-0.00769115 0.0162482 0)
(-0.010116 0.0123304 0)
(-0.0109802 0.0090385 0)
(-0.0110554 0.00652598 0)
(-0.0108066 0.0046522 0)
(-0.0104751 0.00323949 0)
(-0.0101766 0.00213784 0)
(-0.00996259 0.00123248 0)
(-0.00985466 0.000435456 0)
(-0.00986099 -0.000325564 0)
(-0.00998335 -0.00111803 0)
(-0.0102174 -0.00201497 0)
(-0.0105461 -0.00310622 0)
(-0.0109235 -0.0045113 0)
(-0.0112389 -0.00639082 0)
(-0.0112495 -0.00894297 0)
(-0.0104713 -0.0123404 0)
(-0.00808868 -0.0164576 0)
(-0.00318318 -0.0189876 0)
(-0.00540627 0.0266281 0)
(-0.0125846 0.0199619 0)
(-0.0144344 0.0133254 0)
(-0.0141825 0.00887802 0)
(-0.0133051 0.0059796 0)
(-0.0123767 0.00405881 0)
(-0.011596 0.00273401 0)
(-0.0110148 0.00176748 0)
(-0.0106356 0.00101034 0)
(-0.0104499 0.000363859 0)
(-0.0104519 -0.000245597 0)
(-0.0106434 -0.000883998 0)
(-0.0110344 -0.00162473 0)
(-0.0116397 -0.00256664 0)
(-0.0124665 -0.00386108 0)
(-0.0134768 -0.00575571 0)
(-0.014484 -0.0086607 0)
(-0.0149005 -0.0132118 0)
(-0.0132384 -0.0201673 0)
(-0.00571654 -0.0280063 0)
(-0.0100471 0.0441797 0)
(-0.0200731 0.0226322 0)
(-0.0176232 0.0120197 0)
(-0.0144723 0.00706186 0)
(-0.0119158 0.00438961 0)
(-0.0100371 0.00282962 0)
(-0.00871726 0.00184583 0)
(-0.00782818 0.00117162 0)
(-0.0072768 0.000665778 0)
(-0.00700632 0.000245539 0)
(-0.00699005 -0.000145837 0)
(-0.0072276 -0.000557301 0)
(-0.00774515 -0.00104469 0)
(-0.00860014 -0.00168976 0)
(-0.00988871 -0.0026354 0)
(-0.0117455 -0.00416318 0)
(-0.0142852 -0.00688065 0)
(-0.0173524 -0.0121888 0)
(-0.0197235 -0.0234237 0)
(-0.0073661 -0.0454531 0)
(0.0701141 0.0287104 0)
(0.0608844 0.0124305 0)
(0.077638 0.00561332 0)
(0.0859325 0.00296045 0)
(0.0902295 0.001718 0)
(0.0928237 0.00106145 0)
(0.0944682 0.000676374 0)
(0.0955157 0.000425752 0)
(0.0961505 0.000244653 0)
(0.096468 9.8316e-05 0)
(0.0965107 -3.5392e-05 0)
(0.0962827 -0.000174575 0)
(0.0957502 -0.000339594 0)
(0.0948282 -0.00056127 0)
(0.0933419 -0.00089738 0)
(0.0909329 -0.00147393 0)
(0.0868212 -0.00260123 0)
(0.0790663 -0.00512558 0)
(0.0613621 -0.0116066 0)
(0.07209 -0.0279633 0)
)
;

boundaryField
{
    movingWall
    {
        type            fixedValue;
        value           uniform (1 0 0);
    }
    fixedWalls
    {
        type            noSlip;
    }
    frontAndBack
    {
        type            empty;
    }
}


// ************************************************************************* //
