/*--------------------------------*- C++ -*----------------------------------*\
| =========                 |                                                 |
| \\      /  F ield         | OpenFOAM: The Open Source CFD Toolbox           |
|  \\    /   O peration     | Version:  2212                                  |
|   \\  /    A nd           | Website:  www.openfoam.com                      |
|    \\/     M anipulation  |                                                 |
\*---------------------------------------------------------------------------*/
FoamFile
{
    version     2.0;
    format      ascii;
    arch        "LSB;label=32;scalar=64";
    class       volVectorField;
    location    "3.875";
    object      U;
}
// * * * * * * * * * * * * * * * * * * * * * * * * * * * * * * * * * * * * * //

dimensions      [0 1 -1 0 0 0 0];

internalField   nonuniform List<vector> 
400
(
(0.00164885 -0.00165632 0)
(0.00473374 -0.00185759 0)
(0.00642907 -0.00118106 0)
(0.00549756 -0.000561681 0)
(0.00141575 0.000195945 0)
(-0.00690852 0.00173581 0)
(-0.0205351 0.00472966 0)
(-0.0392491 0.00861301 0)
(-0.0603001 0.0111549 0)
(-0.0785083 0.0104289 0)
(-0.0891995 0.00676313 0)
(-0.0899746 0.00171352 0)
(-0.0799535 -0.0035296 0)
(-0.0599701 -0.00817152 0)
(-0.0337384 -0.0107541 0)
(-0.00568812 -0.00974396 0)
(0.0162619 -0.00481635 0)
(0.0240935 0.00269344 0)
(0.0160058 0.00638725 0)
(0.00428677 0.00467227 0)
(0.00166191 -0.00494466 0)
(0.0030028 -0.0039044 0)
(-0.0006203 0.000639063 0)
(-0.0114607 0.00641352 0)
(-0.0313441 0.0139205 0)
(-0.0607167 0.0235005 0)
(-0.0960267 0.0326697 0)
(-0.13035 0.036712 0)
(-0.157715 0.0332641 0)
(-0.174829 0.0233215 0)
(-0.180267 0.00919722 0)
(-0.174057 -0.00676532 0)
(-0.156774 -0.0228433 0)
(-0.129131 -0.0365412 0)
(-0.0933777 -0.0442253 0)
(-0.052239 -0.0416216 0)
(-0.0116541 -0.0263347 0)
(0.0165355 -0.00148217 0)
(0.0176599 0.0159817 0)
(0.00550388 0.0146751 0)
(-0.000291599 -0.00555752 0)
(-0.00547195 0.000987167 0)
(-0.0196189 0.0142606 0)
(-0.0442557 0.0309375 0)
(-0.0796702 0.0488974 0)
(-0.121081 0.0636197 0)
(-0.160876 0.069859 0)
(-0.193574 0.0654973 0)
(-0.217049 0.0518899 0)
(-0.230698 0.0314918 0)
(-0.234522 0.00663037 0)
(-0.229166 -0.0206691 0)
(-0.214937 -0.0482506 0)
(-0.191334 -0.0725173 0)
(-0.158083 -0.08835 0)
(-0.115149 -0.0887286 0)
(-0.0643344 -0.0668464 0)
(-0.0139365 -0.0229028 0)
(0.00936035 0.0175466 0)
(0.00415108 0.0233512 0)
(-0.00346482 0.000699691 0)
(-0.0174132 0.0173151 0)
(-0.0431714 0.0411642 0)
(-0.0789232 0.0674656 0)
(-0.121712 0.0901763 0)
(-0.1642 0.102816 0)
(-0.199998 0.102011 0)
(-0.227141 0.0890239 0)
(-0.245876 0.0669753 0)
(-0.256804 0.0385539 0)
(-0.260755 0.00562662 0)
(-0.258528 -0.0304861 0)
(-0.250058 -0.06757 0)
(-0.234297 -0.102698 0)
(-0.209253 -0.130425 0)
(-0.172228 -0.141973 0)
(-0.120684 -0.125193 0)
(-0.0565986 -0.0708041 0)
(-0.00107097 0.00317636 0)
(0.00473616 0.0279605 0)
(-0.00659699 0.0149091 0)
(-0.0284264 0.0438994 0)
(-0.0625997 0.0763478 0)
(-0.103293 0.107753 0)
(-0.145666 0.12986 0)
(-0.182654 0.136909 0)
(-0.210788 0.128438 0)
(-0.230423 0.107976 0)
(-0.242844 0.0793703 0)
(-0.249772 0.0453989 0)
(-0.252899 0.00759246 0)
(-0.253163 -0.0332597 0)
(-0.250342 -0.0760262 0)
(-0.243861 -0.119402 0)
(-0.230912 -0.159444 0)
(-0.206871 -0.187718 0)
(-0.165716 -0.188925 0)
(-0.102798 -0.142315 0)
(-0.0221359 -0.0390271 0)
(0.00730883 0.026785 0)
(-0.00839791 0.0347425 0)
(-0.0347275 0.0760465 0)
(-0.0721859 0.11378 0)
(-0.111894 0.146142 0)
(-0.148791 0.164383 0)
(-0.177422 0.164466 0)
(-0.196776 0.148523 0)
(-0.208371 0.121588 0)
(-0.214185 0.0880042 0)
(-0.216708 0.0507566 0)
(-0.217936 0.0113063 0)
(-0.218897 -0.0299537 0)
(-0.219795 -0.0735234 0)
(-0.220701 -0.119816 0)
(-0.219401 -0.167632 0)
(-0.210778 -0.211482 0)
(-0.186746 -0.237162 0)
(-0.138747 -0.217438 0)
(-0.0623799 -0.118461 0)
(0.00572858 0.013978 0)
(-0.00816312 0.0565602 0)
(-0.0348357 0.109018 0)
(-0.0708683 0.148933 0)
(-0.105701 0.179296 0)
(-0.135046 0.191977 0)
(-0.155265 0.184782 0)
(-0.166997 0.161903 0)
(-0.172334 0.12945 0)
(-0.173689 0.0922036 0)
(-0.173593 0.0531922 0)
(-0.173606 0.0136544 0)
(-0.174433 -0.0263935 0)
(-0.17663 -0.0681428 0)
(-0.180723 -0.112942 0)
(-0.186027 -0.16194 0)
(-0.188851 -0.213975 0)
(-0.181262 -0.26 0)
(-0.153272 -0.273739 0)
(-0.0986389 -0.204886 0)
(-0.00885569 -0.0147382 0)
(-0.00602497 0.0768357 0)
(-0.0293272 0.13919 0)
(-0.060543 0.179326 0)
(-0.0886743 0.206168 0)
(-0.110452 0.212802 0)
(-0.123815 0.198702 0)
(-0.1303 0.169749 0)
(-0.132197 0.132903 0)
(-0.131977 0.0931911 0)
(-0.131632 0.0533614 0)
(-0.131898 0.0141425 0)
(-0.132979 -0.0248769 0)
(-0.135344 -0.0647925 0)
(-0.139688 -0.10692 0)
(-0.146598 -0.153309 0)
(-0.1547 -0.206337 0)
(-0.157925 -0.263955 0)
(-0.145884 -0.306453 0)
(-0.111555 -0.275822 0)
(-0.030681 -0.0749233 0)
(-0.0026651 0.0925736 0)
(-0.0200646 0.163948 0)
(-0.0444558 0.203432 0)
(-0.0653838 0.226197 0)
(-0.0804676 0.227242 0)
(-0.0887997 0.207484 0)
(-0.0922234 0.173982 0)
(-0.092874 0.134226 0)
(-0.0928744 0.0932792 0)
(-0.0934434 0.0534265 0)
(-0.0946592 0.0147622 0)
(-0.0964328 -0.0235524 0)
(-0.0989465 -0.0623799 0)
(-0.102716 -0.102506 0)
(-0.108892 -0.145661 0)
(-0.118183 -0.195863 0)
(-0.127342 -0.257501 0)
(-0.125856 -0.321556 0)
(-0.106938 -0.33304 0)
(-0.0370976 -0.162242 0)
(0.00121794 0.101526 0)
(-0.00875408 0.181531 0)
(-0.0252119 0.220768 0)
(-0.0390231 0.24019 0)
(-0.0483685 0.237047 0)
(-0.0531129 0.213288 0)
(-0.0549068 0.17675 0)
(-0.0554067 0.135311 0)
(-0.0561581 0.0939663 0)
(-0.0577417 0.0544747 0)
(-0.0599379 0.0163633 0)
(-0.0625931 -0.0214927 0)
(-0.0657053 -0.0598242 0)
(-0.069473 -0.0989477 0)
(-0.0748512 -0.139674 0)
(-0.0834372 -0.185792 0)
(-0.0952685 -0.245685 0)
(-0.100229 -0.322242 0)
(-0.0948425 -0.370406 0)
(-0.0308056 -0.241071 0)
(0.00503671 0.102627 0)
(0.00294866 0.190969 0)
(-0.00526715 0.231117 0)
(-0.0122784 0.248092 0)
(-0.0165915 0.242099 0)
(-0.0183996 0.216085 0)
(-0.0189807 0.178226 0)
(-0.0193865 0.136399 0)
(-0.0205788 0.0953624 0)
(-0.0227451 0.0564881 0)
(-0.0255857 0.0190219 0)
(-0.0290219 -0.018257 0)
(-0.0330708 -0.0561146 0)
(-0.0376987 -0.0947027 0)
(-0.0434739 -0.134051 0)
(-0.0516915 -0.176729 0)
(-0.0652393 -0.23263 0)
(-0.0740485 -0.315813 0)
(-0.0810506 -0.394804 0)
(-0.0228961 -0.305454 0)
(0.00828478 0.0962353 0)
(0.0139945 0.191916 0)
(0.0138924 0.234584 0)
(0.0135099 0.250816 0)
(0.0141382 0.243813 0)
(0.0153473 0.217295 0)
(0.0162303 0.179445 0)
(0.0163076 0.137986 0)
(0.015173 0.0974736 0)
(0.0128796 0.0592118 0)
(0.00971354 0.0224744 0)
(0.00565288 -0.0139525 0)
(0.000551418 -0.0509485 0)
(-0.00547612 -0.0887065 0)
(-0.0128358 -0.126929 0)
(-0.021767 -0.16677 0)
(-0.0375638 -0.217466 0)
(-0.0488437 -0.302086 0)
(-0.0679447 -0.406602 0)
(-0.0144831 -0.358327 0)
(0.0100797 0.0834984 0)
(0.0229779 0.184415 0)
(0.0305424 0.230749 0)
(0.0363933 0.247383 0)
(0.0419846 0.240602 0)
(0.0468783 0.215007 0)
(0.0502553 0.178464 0)
(0.05186 0.138336 0)
(0.0516417 0.0989978 0)
(0.0498235 0.0618185 0)
(0.0466709 0.0262581 0)
(0.0421084 -0.00882974 0)
(0.0359524 -0.0443977 0)
(0.0282906 -0.0807183 0)
(0.0183601 -0.117468 0)
(0.00720926 -0.154978 0)
(-0.0120734 -0.201103 0)
(-0.0246295 -0.284036 0)
(-0.0560411 -0.409184 0)
(-0.00620713 -0.400287 0)
(0.00961258 0.066626 0)
(0.0284227 0.168861 0)
(0.0435279 0.219825 0)
(0.0558933 0.238673 0)
(0.0670309 0.233767 0)
(0.0765772 0.210579 0)
(0.0836596 0.176519 0)
(0.0879666 0.138474 0)
(0.0895783 0.10073 0)
(0.0888196 0.0648777 0)
(0.0860315 0.0307529 0)
(0.0810397 -0.00268168 0)
(0.0736641 -0.0361088 0)
(0.0641623 -0.0701543 0)
(0.0512165 -0.104646 0)
(0.0365762 -0.139534 0)
(0.0124385 -0.181065 0)
(-0.000554323 -0.260888 0)
(-0.0451264 -0.405046 0)
(0.00265086 -0.434889 0)
(0.00673559 0.0492178 0)
(0.0286858 0.147543 0)
(0.0500825 0.201514 0)
(0.0686885 0.222119 0)
(0.0859278 0.219245 0)
(0.101405 0.19925 0)
(0.113865 0.168901 0)
(0.12262 0.134322 0)
(0.127589 0.099527 0)
(0.129048 0.0662285 0)
(0.127282 0.0346517 0)
(0.122383 0.00396957 0)
(0.113853 -0.0262364 0)
(0.102339 -0.0568305 0)
(0.0856245 -0.0878919 0)
(0.0668106 -0.120072 0)
(0.0371902 -0.15795 0)
(0.0230957 -0.234988 0)
(-0.0348563 -0.397507 0)
(0.0133022 -0.46337 0)
(0.00231224 0.0347977 0)
(0.0230479 0.122994 0)
(0.0498738 0.178251 0)
(0.0752148 0.200858 0)
(0.0995414 0.200465 0)
(0.122113 0.18418 0)
(0.141277 0.158346 0)
(0.155816 0.12821 0)
(0.16532 0.0973838 0)
(0.170022 0.067576 0)
(0.169893 0.0393624 0)
(0.165661 0.0123102 0)
(0.155962 -0.013961 0)
(0.142463 -0.0402061 0)
(0.121574 -0.0667636 0)
(0.0984735 -0.0952035 0)
(0.0631537 -0.130269 0)
(0.046164 -0.205707 0)
(-0.023204 -0.38608 0)
(0.0282866 -0.484864 0)
(-0.00337812 0.0290456 0)
(0.00964862 0.101128 0)
(0.0361383 0.147469 0)
(0.0675347 0.167799 0)
(0.100002 0.168895 0)
(0.131323 0.156681 0)
(0.15895 0.136438 0)
(0.181159 0.112302 0)
(0.196927 0.0873409 0)
(0.206619 0.0630799 0)
(0.209433 0.0402615 0)
(0.20713 0.0187295 0)
(0.197024 -0.00187737 0)
(0.182636 -0.0220989 0)
(0.158258 -0.0424207 0)
(0.132143 -0.0659557 0)
(0.0912604 -0.0998328 0)
(0.0690328 -0.178597 0)
(-0.00484691 -0.369419 0)
(0.0519233 -0.49129 0)
(-0.013719 0.0189414 0)
(-0.00749408 0.0882326 0)
(0.0186129 0.123589 0)
(0.0552788 0.136276 0)
(0.0958663 0.13567 0)
(0.135713 0.126479 0)
(0.171487 0.111933 0)
(0.200901 0.0943388 0)
(0.222474 0.0761097 0)
(0.237297 0.0582356 0)
(0.243234 0.0416854 0)
(0.24412 0.0263047 0)
(0.234987 0.0122837 0)
(0.223404 -0.00125262 0)
(0.198896 -0.0150504 0)
(0.17551 -0.033872 0)
(0.131855 -0.0666304 0)
(0.106952 -0.145304 0)
(0.0370664 -0.32602 0)
(0.0922056 -0.455821 0)
(-0.105818 0.0827161 0)
(-0.0775973 0.0692196 0)
(-0.0486628 0.073133 0)
(0.00323743 0.0773723 0)
(0.0562183 0.0775568 0)
(0.108413 0.0732599 0)
(0.155098 0.0659816 0)
(0.197013 0.056683 0)
(0.228815 0.0471593 0)
(0.256722 0.0376647 0)
(0.272384 0.0291857 0)
(0.287541 0.0213656 0)
(0.288093 0.014778 0)
(0.292461 0.00851229 0)
(0.276648 0.00166642 0)
(0.269913 -0.0094718 0)
(0.231103 -0.0350849 0)
(0.217577 -0.0951955 0)
(0.150089 -0.229715 0)
(0.17065 -0.341498 0)
(0.130083 0.103829 0)
(0.158565 0.0754532 0)
(0.212552 0.0534768 0)
(0.271033 0.0418141 0)
(0.323427 0.0360317 0)
(0.375572 0.032006 0)
(0.419846 0.0289411 0)
(0.46484 0.0255923 0)
(0.497683 0.0229221 0)
(0.532744 0.0197437 0)
(0.552097 0.0176051 0)
(0.577909 0.0146878 0)
(0.584147 0.0132697 0)
(0.602665 0.0104691 0)
(0.594342 0.00952293 0)
(0.603132 0.00512562 0)
(0.567616 0.000194437 0)
(0.547736 -0.0182492 0)
(0.43597 -0.0504057 0)
(0.336892 -0.101408 0)
)
;

boundaryField
{
    movingWall
    {
        type            fixedValue;
        value           uniform (1 0 0);
    }
    fixedWalls
    {
        type            noSlip;
    }
    frontAndBack
    {
        type            empty;
    }
}


// ************************************************************************* //
