/*--------------------------------*- C++ -*----------------------------------*\
| =========                 |                                                 |
| \\      /  F ield         | OpenFOAM: The Open Source CFD Toolbox           |
|  \\    /   O peration     | Version:  2212                                  |
|   \\  /    A nd           | Website:  www.openfoam.com                      |
|    \\/     M anipulation  |                                                 |
\*---------------------------------------------------------------------------*/
FoamFile
{
    version     2.0;
    format      ascii;
    arch        "LSB;label=32;scalar=64";
    class       volVectorField;
    location    "1.97";
    object      U;
}
// * * * * * * * * * * * * * * * * * * * * * * * * * * * * * * * * * * * * * //

dimensions      [0 1 -1 0 0 0 0];

internalField   nonuniform List<vector> 
400
(
(0.00105881 -0.00113359 0)
(0.00282112 -0.0011691 0)
(0.00345888 -0.000776017 0)
(0.0023211 -0.000303394 0)
(-0.00121529 0.000363203 0)
(-0.0080406 0.0015886 0)
(-0.0189809 0.00369645 0)
(-0.0340272 0.00646465 0)
(-0.0513683 0.00862634 0)
(-0.0672138 0.00859539 0)
(-0.0774301 0.00599366 0)
(-0.0793007 0.00181126 0)
(-0.071661 -0.00272994 0)
(-0.0548025 -0.00690702 0)
(-0.0320191 -0.00930382 0)
(-0.00726374 -0.00854822 0)
(0.0123464 -0.00452179 0)
(0.0198045 0.00199376 0)
(0.0136181 0.00533026 0)
(0.00378636 0.0039948 0)
(0.000711827 -0.00281397 0)
(0.000368533 -0.0015984 0)
(-0.00379342 0.00148632 0)
(-0.0129605 0.0056581 0)
(-0.028787 0.0113017 0)
(-0.0520626 0.0185856 0)
(-0.0810623 0.0260548 0)
(-0.111021 0.0304679 0)
(-0.136453 0.0290818 0)
(-0.153547 0.0216638 0)
(-0.160325 0.00981649 0)
(-0.156248 -0.00429423 0)
(-0.141791 -0.0187939 0)
(-0.117389 -0.0314449 0)
(-0.0852363 -0.0387764 0)
(-0.0480454 -0.0369429 0)
(-0.0113977 -0.0239582 0)
(0.0137257 -0.00241917 0)
(0.0153089 0.0133742 0)
(0.00498356 0.0127195 0)
(-0.000938713 -0.00185958 0)
(-0.00637176 0.00386187 0)
(-0.0186171 0.0130214 0)
(-0.0383894 0.0250522 0)
(-0.0666628 0.0391069 0)
(-0.101248 0.0521173 0)
(-0.136769 0.0595621 0)
(-0.16783 0.0583525 0)
(-0.191377 0.0483934 0)
(-0.20614 0.0314097 0)
(-0.211648 0.00953949 0)
(-0.208148 -0.015127 0)
(-0.195903 -0.0404621 0)
(-0.174549 -0.0630999 0)
(-0.143909 -0.0782596 0)
(-0.104221 -0.0794834 0)
(-0.05771 -0.0606676 0)
(-0.0124358 -0.022195 0)
(0.00856719 0.0143279 0)
(0.00406295 0.0205718 0)
(-0.00312603 0.00421019 0)
(-0.0149121 0.0176617 0)
(-0.0359839 0.0344837 0)
(-0.0648519 0.0545379 0)
(-0.100614 0.0742152 0)
(-0.138705 0.0878049 0)
(-0.173328 0.0908237 0)
(-0.201144 0.0824607 0)
(-0.221426 0.0647107 0)
(-0.234231 0.0399841 0)
(-0.239938 0.0102392 0)
(-0.239163 -0.023 0)
(-0.231961 -0.057652 0)
(-0.217388 -0.0906854 0)
(-0.193679 -0.11701 0)
(-0.15845 -0.12841 0)
(-0.109934 -0.113873 0)
(-0.0506714 -0.0651194 0)
(-0.000847305 0.00111698 0)
(0.00457267 0.0249698 0)
(-0.00530631 0.0158315 0)
(-0.0227967 0.039085 0)
(-0.0505053 0.0631098 0)
(-0.0843551 0.0888369 0)
(-0.121866 0.110268 0)
(-0.157607 0.120916 0)
(-0.187082 0.117963 0)
(-0.209066 0.102845 0)
(-0.224107 0.0787073 0)
(-0.233293 0.0482461 0)
(-0.238029 0.0132357 0)
(-0.239311 -0.0253183 0)
(-0.237199 -0.0661341 0)
(-0.230901 -0.10751 0)
(-0.218015 -0.145658 0)
(-0.194196 -0.172534 0)
(-0.154145 -0.173907 0)
(-0.0940884 -0.130754 0)
(-0.0195236 -0.0363626 0)
(0.00668332 0.0242309 0)
(-0.00655654 0.0313626 0)
(-0.0274331 0.0651766 0)
(-0.0581155 0.0946682 0)
(-0.0923361 0.123136 0)
(-0.126881 0.143305 0)
(-0.156614 0.14916 0)
(-0.178705 0.139846 0)
(-0.19337 0.118559 0)
(-0.201974 0.089265 0)
(-0.206487 0.0550291 0)
(-0.208968 0.0176771 0)
(-0.210656 -0.0221107 0)
(-0.211912 -0.0643548 0)
(-0.212625 -0.109204 0)
(-0.210854 -0.155385 0)
(-0.20162 -0.197496 0)
(-0.177263 -0.22177 0)
(-0.12984 -0.202338 0)
(-0.0559516 -0.108249 0)
(0.0051511 0.0128803 0)
(-0.00636829 0.0484262 0)
(-0.0275816 0.0924269 0)
(-0.0574895 0.125291 0)
(-0.088483 0.153939 0)
(-0.117343 0.170898 0)
(-0.139791 0.171122 0)
(-0.154509 0.155546 0)
(-0.162646 0.128758 0)
(-0.166108 0.0954366 0)
(-0.167211 0.0589338 0)
(-0.167853 0.021003 0)
(-0.16901 -0.0179476 0)
(-0.171281 -0.0586436 0)
(-0.175304 -0.102422 0)
(-0.180444 -0.150368 0)
(-0.182973 -0.201282 0)
(-0.174939 -0.245979 0)
(-0.146531 -0.258555 0)
(-0.0917417 -0.191242 0)
(-0.00733598 -0.0136751 0)
(-0.00476945 0.0643734 0)
(-0.0234432 0.117783 0)
(-0.0496396 0.152399 0)
(-0.0752893 0.179517 0)
(-0.0975691 0.192331 0)
(-0.11327 0.18686 0)
(-0.122235 0.16558 0)
(-0.126138 0.134207 0)
(-0.127121 0.097951 0)
(-0.127316 0.0601545 0)
(-0.127864 0.0221793 0)
(-0.129035 -0.0159281 0)
(-0.131226 -0.0548797 0)
(-0.135404 -0.0959542 0)
(-0.142302 -0.141299 0)
(-0.150576 -0.193538 0)
(-0.153916 -0.250454 0)
(-0.141825 -0.291835 0)
(-0.107006 -0.261125 0)
(-0.0278289 -0.0681594 0)
(-0.00220717 0.076799 0)
(-0.0162256 0.138763 0)
(-0.036834 0.174211 0)
(-0.0562247 0.198922 0)
(-0.0721059 0.207569 0)
(-0.0823159 0.197208 0)
(-0.0874504 0.171466 0)
(-0.0893216 0.136859 0)
(-0.0899349 0.098895 0)
(-0.0908495 0.0606559 0)
(-0.0923688 0.022909 0)
(-0.0941974 -0.0147562 0)
(-0.096406 -0.052852 0)
(-0.0997406 -0.0918722 0)
(-0.105668 -0.133604 0)
(-0.11517 -0.182692 0)
(-0.124781 -0.243917 0)
(-0.123745 -0.307331 0)
(-0.104243 -0.317518 0)
(-0.0356288 -0.149977 0)
(0.000756077 0.0839662 0)
(-0.00728903 0.153815 0)
(-0.0212248 0.190077 0)
(-0.0341269 0.212513 0)
(-0.0441396 0.217789 0)
(-0.050036 0.203848 0)
(-0.0527439 0.175117 0)
(-0.0538365 0.13865 0)
(-0.0548752 0.100069 0)
(-0.0567818 0.0620363 0)
(-0.0593543 0.0246687 0)
(-0.0620955 -0.012841 0)
(-0.0648741 -0.0508292 0)
(-0.0679974 -0.0889898 0)
(-0.0727849 -0.127937 0)
(-0.0813519 -0.172212 0)
(-0.0937612 -0.231532 0)
(-0.0997018 -0.308282 0)
(-0.0936832 -0.355667 0)
(-0.0305606 -0.228106 0)
(0.00359958 0.0849824 0)
(0.00197645 0.161871 0)
(-0.00490053 0.199505 0)
(-0.0114193 0.220139 0)
(-0.016062 0.223017 0)
(-0.0182659 0.207028 0)
(-0.0190508 0.176996 0)
(-0.0195579 0.14011 0)
(-0.0207776 0.101837 0)
(-0.0231331 0.0644354 0)
(-0.0262511 0.027617 0)
(-0.0297278 -0.00961413 0)
(-0.0334803 -0.0475607 0)
(-0.0375099 -0.0855302 0)
(-0.0425762 -0.123014 0)
(-0.0505093 -0.163079 0)
(-0.0644639 -0.217645 0)
(-0.0745398 -0.301291 0)
(-0.0807635 -0.379927 0)
(-0.0230077 -0.291991 0)
(0.00586344 0.0802475 0)
(0.0105894 0.162797 0)
(0.0107317 0.202726 0)
(0.0104094 0.22266 0)
(0.0109633 0.224437 0)
(0.0124216 0.207849 0)
(0.0137637 0.177852 0)
(0.0142719 0.141491 0)
(0.0134957 0.103983 0)
(0.0113824 0.0673787 0)
(0.00829343 0.0313326 0)
(0.00437697 -0.00516287 0)
(-0.000439341 -0.0424686 0)
(-0.00608302 -0.0799238 0)
(-0.0129324 -0.116431 0)
(-0.021587 -0.153247 0)
(-0.0376392 -0.201914 0)
(-0.0503733 -0.28738 0)
(-0.0684699 -0.392378 0)
(-0.0149232 -0.345154 0)
(0.00695925 0.070865 0)
(0.0173138 0.156749 0)
(0.0240911 0.199274 0)
(0.0295931 0.219108 0)
(0.0352128 0.220685 0)
(0.0407529 0.20481 0)
(0.0450888 0.176194 0)
(0.0476208 0.14138 0)
(0.0482004 0.105278 0)
(0.0470047 0.0699123 0)
(0.044376 0.0351034 0)
(0.0402639 -9.44257e-05 0)
(0.0345105 -0.0359444 0)
(0.0270432 -0.0720537 0)
(0.0173375 -0.107227 0)
(0.00628451 -0.141481 0)
(-0.0131056 -0.184853 0)
(-0.0270395 -0.268684 0)
(-0.057154 -0.395155 0)
(-0.0068097 -0.387706 0)
(0.0065073 0.058653 0)
(0.0210299 0.144427 0)
(0.0340613 0.189884 0)
(0.045407 0.210673 0)
(0.0563116 0.213052 0)
(0.0665344 0.198947 0)
(0.0748273 0.172713 0)
(0.0804604 0.140193 0)
(0.083324 0.105959 0)
(0.0836677 0.0721583 0)
(0.0818047 0.0389939 0)
(0.0776939 0.00577261 0)
(0.0709885 -0.0277364 0)
(0.0616663 -0.0615121 0)
(0.0488389 -0.0945352 0)
(0.0340872 -0.126205 0)
(0.00990558 -0.164598 0)
(-0.00392989 -0.245416 0)
(-0.0468598 -0.391695 0)
(0.0018122 -0.423464 0)
(0.00451705 0.0462412 0)
(0.0205703 0.12782 0)
(0.0383056 0.174119 0)
(0.0550239 0.194982 0)
(0.0715185 0.198107 0)
(0.0873024 0.186366 0)
(0.10082 0.163574 0)
(0.11097 0.134612 0)
(0.11741 0.103519 0)
(0.120286 0.072451 0)
(0.119811 0.0420167 0)
(0.116103 0.0118507 0)
(0.108436 -0.0182303 0)
(0.0973046 -0.0483957 0)
(0.0809249 -0.0779927 0)
(0.0620263 -0.107084 0)
(0.0325699 -0.141557 0)
(0.019033 -0.219516 0)
(-0.0371777 -0.38505 0)
(0.0120841 -0.453725 0)
(0.00140272 0.0359953 0)
(0.0157689 0.109519 0)
(0.0369031 0.155338 0)
(0.0588282 0.176093 0)
(0.0812673 0.17968 0)
(0.103167 0.170125 0)
(0.122715 0.151019 0)
(0.138343 0.126255 0)
(0.14931 0.0991876 0)
(0.155609 0.0718118 0)
(0.157093 0.0449871 0)
(0.154375 0.0187318 0)
(0.145962 -0.00716745 0)
(0.133229 -0.03263 0)
(0.113164 -0.057585 0)
(0.090335 -0.0832192 0)
(0.0556868 -0.114998 0)
(0.0411873 -0.191773 0)
(-0.0264136 -0.376345 0)
(0.0265189 -0.477605 0)
(-0.00294256 0.0334617 0)
(0.00410908 0.0939085 0)
(0.0238411 0.129587 0)
(0.0504635 0.146694 0)
(0.0796176 0.150058 0)
(0.108834 0.142972 0)
(0.135612 0.128342 0)
(0.158012 0.109023 0)
(0.17474 0.0876382 0)
(0.1857 0.0658196 0)
(0.190153 0.0445537 0)
(0.189205 0.0239708 0)
(0.18082 0.00412347 0)
(0.167668 -0.0152891 0)
(0.14479 -0.0342488 0)
(0.119714 -0.0556739 0)
(0.0807658 -0.0867668 0)
(0.0629981 -0.166296 0)
(-0.00862346 -0.362642 0)
(0.0500096 -0.486774 0)
(-0.0103092 0.0237301 0)
(-0.00824601 0.0872146 0)
(0.00925674 0.113851 0)
(0.0390718 0.121945 0)
(0.07386 0.121126 0)
(0.109375 0.114563 0)
(0.142535 0.103679 0)
(0.17078 0.0896233 0)
(0.192597 0.0743173 0)
(0.208175 0.0585965 0)
(0.215827 0.0436721 0)
(0.218211 0.0293729 0)
(0.211417 0.0164688 0)
(0.201299 0.00372537 0)
(0.179496 -0.00866848 0)
(0.158685 -0.0261399 0)
(0.118536 -0.0574196 0)
(0.0989352 -0.13839 0)
(0.0329885 -0.324029 0)
(0.0906738 -0.45423 0)
(-0.103715 0.0861062 0)
(-0.0768963 0.0706293 0)
(-0.0522324 0.0683833 0)
(-0.00646383 0.0694455 0)
(0.0401021 0.0687751 0)
(0.0867723 0.0654498 0)
(0.129584 0.0600348 0)
(0.169001 0.0527303 0)
(0.200135 0.0450482 0)
(0.228104 0.0369703 0)
(0.24515 0.0297008 0)
(0.261675 0.0226788 0)
(0.264682 0.0169286 0)
(0.270984 0.0112005 0)
(0.258738 0.0052887 0)
(0.254378 -0.00560078 0)
(0.218739 -0.0309438 0)
(0.210257 -0.0925588 0)
(0.147482 -0.229186 0)
(0.170088 -0.341247 0)
(0.131507 0.105278 0)
(0.16169 0.0785067 0)
(0.217032 0.0565149 0)
(0.274446 0.04392 0)
(0.324019 0.0371201 0)
(0.372274 0.0324086 0)
(0.412956 0.0290602 0)
(0.454937 0.0256567 0)
(0.48602 0.0231028 0)
(0.520124 0.0200335 0)
(0.539562 0.018066 0)
(0.565877 0.0152301 0)
(0.573316 0.0139754 0)
(0.59312 0.0112304 0)
(0.58673 0.0104276 0)
(0.597336 0.00595056 0)
(0.564111 0.00108231 0)
(0.546703 -0.0174608 0)
(0.436956 -0.0499575 0)
(0.337693 -0.101219 0)
)
;

boundaryField
{
    movingWall
    {
        type            fixedValue;
        value           uniform (1 0 0);
    }
    fixedWalls
    {
        type            noSlip;
    }
    frontAndBack
    {
        type            empty;
    }
}


// ************************************************************************* //
