/*--------------------------------*- C++ -*----------------------------------*\
| =========                 |                                                 |
| \\      /  F ield         | OpenFOAM: The Open Source CFD Toolbox           |
|  \\    /   O peration     | Version:  2212                                  |
|   \\  /    A nd           | Website:  www.openfoam.com                      |
|    \\/     M anipulation  |                                                 |
\*---------------------------------------------------------------------------*/
FoamFile
{
    version     2.0;
    format      ascii;
    arch        "LSB;label=32;scalar=64";
    class       surfaceScalarField;
    location    "1.49";
    object      phi;
}
// * * * * * * * * * * * * * * * * * * * * * * * * * * * * * * * * * * * * * //

dimensions      [0 3 -1 0 0 0 0];

oriented        oriented;

internalField   nonuniform List<scalar> 
760
(
4.61219e-08
-4.61216e-08
4.80267e-08
-1.90492e-09
4.08527e-10
4.76179e-08
-1.0919e-07
1.09598e-07
-3.09374e-07
2.00184e-07
-6.33204e-07
3.2383e-07
-1.10237e-06
4.69165e-07
-1.69884e-06
5.96468e-07
-2.33881e-06
6.39971e-07
-2.88186e-06
5.43055e-07
-3.18246e-06
3.00595e-07
-3.15612e-06
-2.63396e-08
-2.70338e-06
-4.52743e-07
-1.89843e-06
-8.04941e-07
-9.04634e-07
-9.938e-07
1.08759e-08
-9.1551e-07
6.00794e-07
-5.89918e-07
6.40902e-07
-4.01083e-08
3.03203e-07
3.37699e-07
3.03203e-07
-4.37054e-08
-2.41619e-09
-2.08765e-07
1.63154e-07
-5.07555e-07
3.46409e-07
-9.78187e-07
5.8023e-07
-1.67238e-06
8.94381e-07
-2.60853e-06
1.25998e-06
-3.72699e-06
1.58762e-06
-4.87554e-06
1.74502e-06
-5.85411e-06
1.61854e-06
-6.49279e-06
1.18174e-06
-6.69777e-06
5.0557e-07
-6.40853e-06
-3.15578e-07
-5.63934e-06
-1.22193e-06
-4.42086e-06
-2.02342e-06
-2.87972e-06
-2.53494e-06
-1.26306e-06
-2.53217e-06
-3.39469e-09
-1.84958e-06
5.66448e-07
-6.09951e-07
3.71285e-07
5.32863e-07
6.74488e-07
-1.90363e-07
1.87946e-07
-6.11181e-07
5.83972e-07
-1.228e-06
9.63227e-07
-2.09071e-06
1.44294e-06
-3.23386e-06
2.03753e-06
-4.60492e-06
2.63104e-06
-6.0475e-06
3.0302e-06
-7.35699e-06
3.05451e-06
-8.36947e-06
2.63102e-06
-8.99912e-06
1.81139e-06
-9.19714e-06
7.03597e-07
-8.93399e-06
-5.78736e-07
-8.2303e-06
-1.92563e-06
-7.05701e-06
-3.1967e-06
-5.41974e-06
-4.17221e-06
-3.43074e-06
-4.52117e-06
-1.43085e-06
-3.84948e-06
-5.51766e-08
-1.98562e-06
2.51114e-07
2.26573e-07
9.25601e-07
-3.64178e-07
5.52125e-07
-1.04845e-06
1.26824e-06
-1.96974e-06
1.88452e-06
-3.16366e-06
2.63685e-06
-4.61996e-06
3.49383e-06
-6.2185e-06
4.22958e-06
-7.76254e-06
4.57424e-06
-9.07099e-06
4.36295e-06
-1.00478e-05
3.6078e-06
-1.06691e-05
2.43273e-06
-1.0914e-05
9.48515e-07
-1.07803e-05
-7.12498e-07
-1.0301e-05
-2.40492e-06
-9.39884e-06
-4.09883e-06
-7.97633e-06
-5.59472e-06
-5.95621e-06
-6.54129e-06
-3.44724e-06
-6.35845e-06
-1.03377e-06
-4.39909e-06
1.21098e-07
-9.28291e-07
1.0467e-06
-5.18625e-07
1.07075e-06
-1.42456e-06
2.17418e-06
-2.57845e-06
3.03841e-06
-3.98444e-06
4.04284e-06
-5.58073e-06
5.09012e-06
-7.20084e-06
5.84969e-06
-8.64762e-06
6.02102e-06
-9.78905e-06
5.50438e-06
-1.05938e-05
4.41256e-06
-1.10895e-05
2.92842e-06
-1.13151e-05
1.17414e-06
-1.13033e-05
-7.24368e-07
-1.10808e-05
-2.62743e-06
-1.05798e-05
-4.59979e-06
-9.65042e-06
-6.52409e-06
-8.06481e-06
-8.1269e-06
-5.62416e-06
-8.7991e-06
-2.53081e-06
-7.49244e-06
-1.84222e-07
-3.27488e-06
8.62478e-07
-6.15965e-07
1.68671e-06
-1.65564e-06
3.21386e-06
-2.92256e-06
4.30533e-06
-4.37707e-06
5.49736e-06
-5.91389e-06
6.62694e-06
-7.35278e-06
7.28858e-06
-8.5311e-06
7.19934e-06
-9.3761e-06
6.34938e-06
-9.9076e-06
4.94406e-06
-1.01912e-05
3.21205e-06
-1.03192e-05
1.30208e-06
-1.03664e-05
-6.77091e-07
-1.03307e-05
-2.66316e-06
-1.02128e-05
-4.71769e-06
-9.88669e-06
-6.85021e-06
-9.05314e-06
-8.96046e-06
-7.28843e-06
-1.05638e-05
-4.32254e-06
-1.04583e-05
-8.96775e-07
-6.70065e-06
-3.42965e-08
-6.2789e-07
2.31461e-06
-1.68428e-06
4.27025e-06
-2.92429e-06
5.54533e-06
-4.26575e-06
6.83882e-06
-5.58697e-06
7.94816e-06
-6.73158e-06
8.43319e-06
-7.58815e-06
8.0559e-06
-8.13392e-06
6.89516e-06
-8.42027e-06
5.23041e-06
-8.53003e-06
3.32181e-06
-8.55411e-06
1.32617e-06
-8.56598e-06
-6.65221e-07
-8.58905e-06
-2.64009e-06
-8.67664e-06
-4.6301e-06
-8.79467e-06
-6.73218e-06
-8.70275e-06
-9.05237e-06
-7.88783e-06
-1.13787e-05
-5.69917e-06
-1.2647e-05
-1.97314e-06
-1.04267e-05
-2.00744e-06
-5.46801e-07
2.86141e-06
-1.5014e-06
5.22485e-06
-2.59306e-06
6.637e-06
-3.71013e-06
7.95589e-06
-4.74305e-06
8.98108e-06
-5.58203e-06
9.27218e-06
-6.16763e-06
8.64149e-06
-6.51173e-06
7.23925e-06
-6.67591e-06
5.39459e-06
-6.73219e-06
3.37809e-06
-6.73653e-06
1.3305e-06
-6.72064e-06
-6.81105e-07
-6.72192e-06
-2.63881e-06
-6.817e-06
-4.53503e-06
-7.07431e-06
-6.47486e-06
-7.40998e-06
-8.71671e-06
-7.3638e-06
-1.14249e-05
-6.11475e-06
-1.3896e-05
-3.03596e-06
-1.35055e-05
-5.0434e-06
-3.88971e-07
3.25038e-06
-1.14452e-06
5.9804e-06
-2.00566e-06
7.49813e-06
-2.84315e-06
8.79339e-06
-3.57587e-06
9.7138e-06
-4.14623e-06
9.84254e-06
-4.53923e-06
9.03449e-06
-4.78382e-06
7.48385e-06
-4.93144e-06
5.54221e-06
-5.02603e-06
3.47267e-06
-5.08276e-06
1.38724e-06
-5.09269e-06
-6.71179e-07
-5.07905e-06
-2.65245e-06
-5.11224e-06
-4.50184e-06
-5.32296e-06
-6.26414e-06
-5.7732e-06
-8.26647e-06
-6.1866e-06
-1.10115e-05
-5.73727e-06
-1.43454e-05
-3.55891e-06
-1.56838e-05
-8.60231e-06
-1.78849e-07
3.42923e-06
-6.72956e-07
6.47451e-06
-1.25927e-06
8.08445e-06
-1.79854e-06
9.33265e-06
-2.24164e-06
1.01569e-05
-2.57926e-06
1.01802e-05
-2.82835e-06
9.28358e-06
-3.01927e-06
7.67476e-06
-3.18165e-06
5.7046e-06
-3.32923e-06
3.62025e-06
-3.45248e-06
1.51049e-06
-3.52738e-06
-5.96282e-07
-3.55415e-06
-2.62568e-06
-3.57483e-06
-4.48116e-06
-3.71545e-06
-6.12352e-06
-4.15059e-06
-7.83133e-06
-4.79622e-06
-1.03659e-05
-4.92129e-06
-1.42203e-05
-3.37805e-06
-1.72271e-05
-1.19804e-05
4.91527e-08
3.38007e-06
-1.54788e-07
6.67845e-06
-4.51062e-07
8.38072e-06
-6.94366e-07
9.57596e-06
-8.62403e-07
1.03249e-05
-9.83545e-07
1.03013e-05
-1.0894e-06
9.38943e-06
-1.20918e-06
7.79455e-06
-1.35518e-06
5.8506e-06
-1.52012e-06
3.78518e-06
-1.68784e-06
1.67822e-06
-1.84284e-06
-4.41283e-07
-1.96505e-06
-2.50347e-06
-2.06854e-06
-4.37766e-06
-2.23766e-06
-5.9544e-06
-2.66082e-06
-7.40817e-06
-3.42286e-06
-9.60384e-06
-3.9463e-06
-1.36969e-05
-2.9502e-06
-1.82232e-05
-1.49306e-05
2.34369e-07
3.1457e-06
3.18268e-07
6.59455e-06
3.22759e-07
8.37623e-06
3.76291e-07
9.52243e-06
4.90852e-07
1.02104e-05
6.08166e-07
1.0184e-05
6.747e-07
9.3229e-06
6.61628e-07
7.80762e-06
5.75387e-07
5.93685e-06
4.3673e-07
3.92384e-06
2.60257e-07
1.85469e-06
5.07745e-08
-2.318e-07
-1.83811e-07
-2.26888e-06
-4.61062e-07
-4.10041e-06
-7.95357e-07
-5.62011e-06
-1.29499e-06
-6.90854e-06
-2.16509e-06
-8.73374e-06
-2.98396e-06
-1.2878e-05
-2.47862e-06
-1.87285e-05
-1.74092e-05
3.64518e-07
2.78119e-06
7.00133e-07
6.25893e-06
9.73228e-07
8.10314e-06
1.3106e-06
9.18505e-06
1.72447e-06
9.7965e-06
2.12107e-06
9.78739e-06
2.40934e-06
9.03463e-06
2.55468e-06
7.66228e-06
2.57166e-06
5.91987e-06
2.48744e-06
4.00805e-06
2.31205e-06
2.03008e-06
2.02031e-06
5.9939e-08
1.6505e-06
-1.89907e-06
1.19204e-06
-3.64195e-06
6.45511e-07
-5.07358e-06
-7.50382e-08
-6.18799e-06
-1.03484e-06
-7.77394e-06
-2.08638e-06
-1.18265e-05
-2.01021e-06
-1.88047e-05
-1.94194e-05
4.1282e-07
2.36837e-06
9.37428e-07
5.73433e-06
1.44928e-06
7.59129e-06
2.04187e-06
8.59246e-06
2.72826e-06
9.11012e-06
3.40647e-06
9.10918e-06
3.95875e-06
8.48235e-06
4.32397e-06
7.29705e-06
4.50022e-06
5.74362e-06
4.5074e-06
4.00087e-06
4.35072e-06
2.18676e-06
4.02737e-06
3.83288e-07
3.52012e-06
-1.39182e-06
2.85814e-06
-2.97998e-06
2.06358e-06
-4.27901e-06
1.16679e-06
-5.2912e-06
1.31813e-08
-6.62033e-06
-1.24857e-06
-1.05647e-05
-1.56558e-06
-1.84877e-05
-2.0985e-05
3.60478e-07
2.00789e-06
9.57222e-07
5.13758e-06
1.63949e-06
6.90902e-06
2.44978e-06
7.78216e-06
3.38589e-06
8.174e-06
4.34408e-06
8.15099e-06
5.18388e-06
7.64255e-06
5.811e-06
6.66993e-06
6.19332e-06
5.3613e-06
6.33233e-06
3.86186e-06
6.23098e-06
2.28812e-06
5.88427e-06
7.30001e-07
5.2668e-06
-7.74356e-07
4.42424e-06
-2.13742e-06
3.39301e-06
-3.24778e-06
2.25347e-06
-4.15166e-06
9.4709e-07
-5.31395e-06
-4.72317e-07
-9.14529e-06
-1.12167e-06
-1.78383e-05
-2.21066e-05
2.20538e-07
1.78735e-06
7.73769e-07
4.58435e-06
1.57397e-06
6.10882e-06
2.55812e-06
6.79801e-06
3.69617e-06
7.03595e-06
4.88837e-06
6.95879e-06
5.98698e-06
6.54394e-06
6.87132e-06
5.78559e-06
7.47561e-06
4.75701e-06
7.77472e-06
3.56274e-06
7.76034e-06
2.30249e-06
7.43454e-06
1.05581e-06
6.75192e-06
-9.17337e-08
5.78188e-06
-1.16738e-06
4.56595e-06
-2.03185e-06
3.22875e-06
-2.81446e-06
1.82367e-06
-3.90886e-06
3.04624e-07
-7.62625e-06
-5.03836e-07
-1.70298e-05
-2.26105e-05
-8.91884e-08
1.87654e-06
2.08384e-07
4.28678e-06
1.0239e-06
5.2933e-06
2.18613e-06
5.63579e-06
3.53967e-06
5.68241e-06
4.95435e-06
5.5441e-06
6.28682e-06
5.21148e-06
7.41194e-06
4.66046e-06
8.23654e-06
3.93241e-06
8.71473e-06
3.08456e-06
8.81509e-06
2.20214e-06
8.53562e-06
1.33527e-06
7.89679e-06
5.47101e-07
6.8868e-06
-1.57393e-07
5.61349e-06
-7.58544e-07
4.20998e-06
-1.41094e-06
2.85195e-06
-2.55083e-06
1.5596e-06
-6.3339e-06
3.66005e-07
-1.58363e-05
-2.22445e-05
-4.04451e-07
2.28099e-06
-2.57483e-07
4.13981e-06
5.10256e-07
4.52556e-06
1.72869e-06
4.41736e-06
3.19362e-06
4.21748e-06
4.73105e-06
4.00667e-06
6.19516e-06
3.74738e-06
7.47229e-06
3.38332e-06
8.45704e-06
2.94767e-06
9.10003e-06
2.44156e-06
9.36375e-06
1.93841e-06
9.26101e-06
1.43802e-06
8.79817e-06
1.00994e-06
8.03064e-06
6.10139e-07
7.03102e-06
2.41072e-07
5.94266e-06
-3.22582e-07
4.91695e-06
-1.52512e-06
3.70006e-06
-5.11702e-06
1.74571e-06
-1.38819e-05
-2.04988e-05
-4.02855e-06
6.30954e-06
-3.64814e-06
3.7594e-06
-1.84785e-06
2.72527e-06
1.71769e-07
2.39774e-06
2.17117e-06
2.21808e-06
4.12675e-06
2.05109e-06
5.98022e-06
1.89391e-06
7.65961e-06
1.70393e-06
9.09031e-06
1.51697e-06
1.02391e-05
1.29278e-06
1.10786e-05
1.09888e-06
1.16299e-05
8.86739e-07
1.18942e-05
7.45674e-07
1.193e-05
5.74288e-07
1.17396e-05
4.31459e-07
1.13156e-05
1.01458e-07
1.07529e-05
-9.62442e-07
9.54874e-06
-3.91284e-06
5.40885e-06
-9.74201e-06
-1.50899e-05
6.30954e-06
1.00689e-05
1.27942e-05
1.51919e-05
1.741e-05
1.94611e-05
2.1355e-05
2.3059e-05
2.45759e-05
2.58687e-05
2.69676e-05
2.78543e-05
2.86e-05
2.91743e-05
2.96058e-05
2.97072e-05
2.87448e-05
2.48319e-05
1.50899e-05
)
;

boundaryField
{
    movingWall
    {
        type            calculated;
        value           uniform 0;
    }
    fixedWalls
    {
        type            calculated;
        value           uniform 0;
    }
    frontAndBack
    {
        type            empty;
        value           nonuniform List<scalar> 0();
    }
}


// ************************************************************************* //
