/*--------------------------------*- C++ -*----------------------------------*\
| =========                 |                                                 |
| \\      /  F ield         | OpenFOAM: The Open Source CFD Toolbox           |
|  \\    /   O peration     | Version:  2212                                  |
|   \\  /    A nd           | Website:  www.openfoam.com                      |
|    \\/     M anipulation  |                                                 |
\*---------------------------------------------------------------------------*/
FoamFile
{
    version     2.0;
    format      ascii;
    arch        "LSB;label=32;scalar=64";
    class       volVectorField;
    location    "1.655";
    object      U;
}
// * * * * * * * * * * * * * * * * * * * * * * * * * * * * * * * * * * * * * //

dimensions      [0 1 -1 0 0 0 0];

internalField   nonuniform List<vector> 
400
(
(0.000746657 -0.000835419 0)
(0.00178311 -0.000749272 0)
(0.00178281 -0.000458121 0)
(0.00045108 -9.20884e-05 0)
(-0.00273012 0.00048314 0)
(-0.00853702 0.00147762 0)
(-0.0177005 0.00307694 0)
(-0.030318 0.00516165 0)
(-0.0450933 0.00694208 0)
(-0.059063 0.00718611 0)
(-0.0686253 0.00526198 0)
(-0.0710666 0.00175021 0)
(-0.065061 -0.0021964 0)
(-0.0505254 -0.00594857 0)
(-0.0304099 -0.00815576 0)
(-0.00822293 -0.00759764 0)
(0.00955584 -0.00430539 0)
(0.0165851 0.00138932 0)
(0.0116989 0.00446924 0)
(0.0033537 0.00344428 0)
(0.000238623 -0.00171594 0)
(-0.000948155 -0.000284028 0)
(-0.00532353 0.00204782 0)
(-0.0133879 0.00518235 0)
(-0.0265323 0.00959519 0)
(-0.0457755 0.0153902 0)
(-0.0704139 0.0216425 0)
(-0.0971145 0.0260095 0)
(-0.120977 0.0258338 0)
(-0.137885 0.0201229 0)
(-0.145474 0.00993698 0)
(-0.142868 -0.00270234 0)
(-0.130479 -0.0158739 0)
(-0.108535 -0.0275581 0)
(-0.0791881 -0.0344864 0)
(-0.0450887 -0.0332117 0)
(-0.0114225 -0.02203 0)
(0.0114967 -0.00313145 0)
(0.0134234 0.0112702 0)
(0.00452768 0.0111279 0)
(-0.00113604 1.71497e-05 0)
(-0.00654295 0.0053316 0)
(-0.0175003 0.0121481 0)
(-0.0340453 0.0211999 0)
(-0.057515 0.0325472 0)
(-0.0873191 0.0441728 0)
(-0.119772 0.0522752 0)
(-0.14975 0.0532129 0)
(-0.173398 0.0457328 0)
(-0.188859 0.0310474 0)
(-0.195378 0.0112858 0)
(-0.193009 -0.0113893 0)
(-0.182075 -0.0348807 0)
(-0.162286 -0.0560513 0)
(-0.133591 -0.0704787 0)
(-0.096409 -0.0722551 0)
(-0.0531215 -0.0557881 0)
(-0.0115655 -0.0215972 0)
(0.00787394 0.0117408 0)
(0.00394986 0.0182978 0)
(-0.00288083 0.00576784 0)
(-0.0132547 0.0174333 0)
(-0.0311748 0.0300816 0)
(-0.0553851 0.0458991 0)
(-0.0862605 0.063262 0)
(-0.121232 0.0773857 0)
(-0.155218 0.0831148 0)
(-0.183826 0.0779652 0)
(-0.205206 0.0629448 0)
(-0.219075 0.0405418 0)
(-0.225622 0.0129205 0)
(-0.225455 -0.0181925 0)
(-0.2188 -0.0507799 0)
(-0.204867 -0.0818843 0)
(-0.182051 -0.106815 0)
(-0.148254 -0.117989 0)
(-0.102154 -0.105279 0)
(-0.0466076 -0.061089 0)
(-0.00072312 -0.000675407 0)
(0.00447907 0.0225229 0)
(-0.00451791 0.0156447 0)
(-0.0193399 0.0355465 0)
(-0.042812 0.0543121 0)
(-0.0719925 0.0759879 0)
(-0.106118 0.0968211 0)
(-0.141205 0.110103 0)
(-0.172104 0.111082 0)
(-0.195997 0.099395 0)
(-0.212698 0.0778272 0)
(-0.223063 0.0493887 0)
(-0.228343 0.0161331 0)
(-0.229705 -0.0206414 0)
(-0.22745 -0.0595771 0)
(-0.220875 -0.0988577 0)
(-0.207841 -0.135033 0)
(-0.184272 -0.160629 0)
(-0.145334 -0.162357 0)
(-0.0877992 -0.12242 0)
(-0.0179109 -0.0350923 0)
(0.00627094 0.0220568 0)
(-0.00548346 0.0286205 0)
(-0.0230925 0.0577609 0)
(-0.0494481 0.0819085 0)
(-0.0799845 0.107534 0)
(-0.113077 0.129152 0)
(-0.144136 0.139306 0)
(-0.168793 0.134565 0)
(-0.185816 0.116604 0)
(-0.196212 0.0894941 0)
(-0.201741 0.0567095 0)
(-0.204434 0.0204592 0)
(-0.20578 -0.0181752 0)
(-0.206344 -0.0589193 0)
(-0.206155 -0.101817 0)
(-0.203574 -0.145866 0)
(-0.193789 -0.186096 0)
(-0.16943 -0.209378 0)
(-0.122933 -0.190919 0)
(-0.051598 -0.101615 0)
(0.0046867 0.0116561 0)
(-0.00538779 0.0429081 0)
(-0.0234565 0.0814055 0)
(-0.0496192 0.109593 0)
(-0.0781674 0.13702 0)
(-0.107119 0.157291 0)
(-0.13199 0.163019 0)
(-0.149596 0.152297 0)
(-0.160037 0.128541 0)
(-0.165089 0.0968521 0)
(-0.166891 0.0611127 0)
(-0.167399 0.0236135 0)
(-0.167808 -0.014733 0)
(-0.168889 -0.0542251 0)
(-0.171623 -0.0961597 0)
(-0.175723 -0.141948 0)
(-0.177565 -0.190896 0)
(-0.16916 -0.234176 0)
(-0.140706 -0.24632 0)
(-0.0863829 -0.181241 0)
(-0.00661473 -0.0134007 0)
(-0.00416998 0.0564231 0)
(-0.0203482 0.103854 0)
(-0.0436641 0.134778 0)
(-0.067912 0.162265 0)
(-0.0911912 0.179894 0)
(-0.109638 0.180786 0)
(-0.121316 0.164456 0)
(-0.127264 0.135736 0)
(-0.129605 0.100494 0)
(-0.130334 0.0627317 0)
(-0.130667 0.0244502 0)
(-0.130901 -0.0136916 0)
(-0.131511 -0.0518182 0)
(-0.133916 -0.0909879 0)
(-0.139412 -0.133761 0)
(-0.146961 -0.183694 0)
(-0.150069 -0.239124 0)
(-0.137891 -0.279702 0)
(-0.102846 -0.249795 0)
(-0.025842 -0.0641494 0)
(-0.00211332 0.0671819 0)
(-0.0145294 0.122792 0)
(-0.0331337 0.155518 0)
(-0.0518312 0.181937 0)
(-0.0690556 0.196529 0)
(-0.0818138 0.193129 0)
(-0.0892603 0.172357 0)
(-0.092906 0.140043 0)
(-0.0947824 0.102497 0)
(-0.0963412 0.0635424 0)
(-0.0978609 0.0246267 0)
(-0.098852 -0.0139277 0)
(-0.099368 -0.0518508 0)
(-0.100531 -0.0890531 0)
(-0.104528 -0.127574 0)
(-0.112976 -0.173436 0)
(-0.122415 -0.232783 0)
(-0.121538 -0.295353 0)
(-0.10155 -0.305196 0)
(-0.0342396 -0.14151 0)
(0.000329314 0.0736967 0)
(-0.00707126 0.136688 0)
(-0.0198131 0.170913 0)
(-0.0324169 0.195967 0)
(-0.0436748 0.207925 0)
(-0.0515619 0.201394 0)
(-0.0560436 0.177736 0)
(-0.0586271 0.143377 0)
(-0.0608724 0.104798 0)
(-0.0635628 0.0654526 0)
(-0.0663502 0.0261434 0)
(-0.0684718 -0.0131722 0)
(-0.0697494 -0.0518818 0)
(-0.0706815 -0.0886535 0)
(-0.0732331 -0.123954 0)
(-0.0803629 -0.163796 0)
(-0.0925632 -0.220441 0)
(-0.0989999 -0.29657 0)
(-0.0922949 -0.343594 0)
(-0.0301519 -0.218149 0)
(0.00267122 0.0750639 0)
(0.000816177 0.144387 0)
(-0.0055272 0.180259 0)
(-0.0119141 0.204006 0)
(-0.0174023 0.214035 0)
(-0.0208215 0.205828 0)
(-0.0227161 0.181062 0)
(-0.0243073 0.14627 0)
(-0.0265255 0.107773 0)
(-0.0296083 0.0686427 0)
(-0.0330139 0.0292599 0)
(-0.0361514 -0.0106078 0)
(-0.0388246 -0.050204 0)
(-0.0410718 -0.087445 0)
(-0.0440902 -0.12124 0)
(-0.0504425 -0.155771 0)
(-0.0640856 -0.206412 0)
(-0.0749573 -0.289319 0)
(-0.0802896 -0.367818 0)
(-0.0229899 -0.281472 0)
(0.00452523 0.0715772 0)
(0.00818876 0.145742 0)
(0.00826845 0.183672 0)
(0.00801757 0.206689 0)
(0.00825907 0.215748 0)
(0.00939545 0.207152 0)
(0.0104496 0.18266 0)
(0.0105079 0.148561 0)
(0.00920318 0.110824 0)
(0.0066801 0.0723047 0)
(0.00343994 0.0333233 0)
(-0.000340267 -0.00634424 0)
(-0.00455589 -0.0459202 0)
(-0.00914888 -0.0832974 0)
(-0.0146996 -0.116388 0)
(-0.0221601 -0.14707 0)
(-0.0379358 -0.190685 0)
(-0.05175 -0.275299 0)
(-0.0687487 -0.380627 0)
(-0.0152121 -0.334557 0)
(0.00540995 0.0641885 0)
(0.0138843 0.140876 0)
(0.020002 0.180704 0)
(0.0255809 0.203113 0)
(0.0314099 0.211756 0)
(0.0374314 0.203933 0)
(0.0423675 0.181125 0)
(0.0452789 0.148895 0)
(0.0460142 0.112713 0)
(0.0448959 0.0754001 0)
(0.0423997 0.0374814 0)
(0.03834 -0.00123914 0)
(0.0327584 -0.039661 0)
(0.025454 -0.0760357 0)
(0.015997 -0.108067 0)
(0.00528711 -0.135929 0)
(-0.0140141 -0.173383 0)
(-0.0291793 -0.256245 0)
(-0.057973 -0.383709 0)
(-0.00724772 -0.377451 0)
(0.00505932 0.0544615 0)
(0.0169078 0.130609 0)
(0.0284618 0.17228 0)
(0.0396481 0.194535 0)
(0.0510726 0.203099 0)
(0.0623473 0.196742 0)
(0.0720327 0.176567 0)
(0.0789412 0.147112 0)
(0.0827889 0.113204 0)
(0.0838258 0.0777109 0)
(0.0824534 0.0416112 0)
(0.0784176 0.00499272 0)
(0.0715635 -0.0310204 0)
(0.0615944 -0.0651404 0)
(0.0479739 -0.0952881 0)
(0.0324812 -0.120732 0)
(0.00801744 -0.152875 0)
(-0.00679887 -0.232807 0)
(-0.048086 -0.38077 0)
(0.00128231 -0.41397 0)
(0.0034723 0.0446008 0)
(0.0162401 0.116747 0)
(0.0315086 0.158005 0)
(0.0474967 0.179007 0)
(0.0644724 0.186982 0)
(0.0815203 0.18226 0)
(0.0968868 0.165527 0)
(0.108973 0.140075 0)
(0.117105 0.109859 0)
(0.121239 0.0776074 0)
(0.121578 0.0447189 0)
(0.118002 0.0116652 0)
(0.109908 -0.0205736 0)
(0.0974979 -0.0509551 0)
(0.0795381 -0.0778856 0)
(0.0590214 -0.10123 0)
(0.0290004 -0.129486 0)
(0.0155578 -0.20683 0)
(-0.0387266 -0.375004 0)
(0.0114077 -0.445765 0)
(0.000891305 0.0365393 0)
(0.0119463 0.102023 0)
(0.0294718 0.141774 0)
(0.0494391 0.161049 0)
(0.0715314 0.167583 0)
(0.0942484 0.163635 0)
(0.115504 0.150035 0)
(0.133253 0.128956 0)
(0.146305 0.103351 0)
(0.154268 0.0755616 0)
(0.15686 0.0471238 0)
(0.154367 0.0188576 0)
(0.145472 -0.00848787 0)
(0.131178 -0.033805 0)
(0.10928 -0.0562539 0)
(0.0845285 -0.0769594 0)
(0.049556 -0.103203 0)
(0.036928 -0.18013 0)
(-0.0285808 -0.36844 0)
(0.0255034 -0.471983 0)
(-0.0029034 0.035885 0)
(0.00107063 0.0896667 0)
(0.0167026 0.119123 0)
(0.0402553 0.133695 0)
(0.0677731 0.138355 0)
(0.0966224 0.135193 0)
(0.124143 0.124987 0)
(0.148034 0.109055 0)
(0.166558 0.0894531 0)
(0.179061 0.0679422 0)
(0.184624 0.0459979 0)
(0.18387 0.0244031 0)
(0.175043 0.00393026 0)
(0.16044 -0.0149725 0)
(0.136117 -0.0317646 0)
(0.109757 -0.049586 0)
(0.0716967 -0.076286 0)
(0.0580274 -0.155807 0)
(-0.0115926 -0.35701 0)
(0.0485009 -0.483351 0)
(-0.00846501 0.0266573 0)
(-0.00810223 0.086783 0)
(0.00414472 0.108229 0)
(0.0288761 0.112962 0)
(0.0599834 0.111746 0)
(0.0931528 0.107043 0)
(0.125348 0.0989003 0)
(0.153787 0.087329 0)
(0.176609 0.0736696 0)
(0.193249 0.0587157 0)
(0.201909 0.0439188 0)
(0.20463 0.0295531 0)
(0.197849 0.0167804 0)
(0.187157 0.00482837 0)
(0.165023 -0.00586478 0)
(0.144809 -0.0211883 0)
(0.107086 -0.050092 0)
(0.0923676 -0.132651 0)
(0.0298409 -0.322674 0)
(0.0895667 -0.453219 0)
(-0.102364 0.0882986 0)
(-0.0760509 0.071855 0)
(-0.0540021 0.0656363 0)
(-0.0124433 0.064745 0)
(0.0300694 0.0633577 0)
(0.0732428 0.0605788 0)
(0.113706 0.0563991 0)
(0.151835 0.0504324 0)
(0.182874 0.0438013 0)
(0.211169 0.0364202 0)
(0.228963 0.0295593 0)
(0.246102 0.0228428 0)
(0.249673 0.0174888 0)
(0.256584 0.0123462 0)
(0.244975 0.00739538 0)
(0.242379 -0.00261527 0)
(0.208583 -0.0274195 0)
(0.204305 -0.0904349 0)
(0.145469 -0.22891 0)
(0.1697 -0.341173 0)
(0.132374 0.106039 0)
(0.163552 0.0803082 0)
(0.219853 0.0583606 0)
(0.276685 0.0453346 0)
(0.324667 0.0379476 0)
(0.370673 0.0328071 0)
(0.409158 0.0292431 0)
(0.449357 0.0257947 0)
(0.479334 0.023265 0)
(0.51296 0.0202393 0)
(0.532287 0.0183109 0)
(0.558887 0.0155058 0)
(0.566597 0.0143116 0)
(0.587096 0.0116565 0)
(0.581324 0.0110078 0)
(0.593278 0.00668877 0)
(0.561322 0.00191895 0)
(0.54585 -0.0167899 0)
(0.437893 -0.0495866 0)
(0.338507 -0.101073 0)
)
;

boundaryField
{
    movingWall
    {
        type            fixedValue;
        value           uniform (1 0 0);
    }
    fixedWalls
    {
        type            noSlip;
    }
    frontAndBack
    {
        type            empty;
    }
}


// ************************************************************************* //
