/*--------------------------------*- C++ -*----------------------------------*\
| =========                 |                                                 |
| \\      /  F ield         | OpenFOAM: The Open Source CFD Toolbox           |
|  \\    /   O peration     | Version:  2212                                  |
|   \\  /    A nd           | Website:  www.openfoam.com                      |
|    \\/     M anipulation  |                                                 |
\*---------------------------------------------------------------------------*/
FoamFile
{
    version     2.0;
    format      ascii;
    arch        "LSB;label=32;scalar=64";
    class       volVectorField;
    location    "3.14";
    object      U;
}
// * * * * * * * * * * * * * * * * * * * * * * * * * * * * * * * * * * * * * //

dimensions      [0 1 -1 0 0 0 0];

internalField   nonuniform List<vector> 
400
(
(0.00158602 -0.00160322 0)
(0.00453539 -0.00179117 0)
(0.00612572 -0.00114444 0)
(0.00517125 -0.000537147 0)
(0.00113709 0.000217132 0)
(-0.00703936 0.00172696 0)
(-0.020391 0.00462242 0)
(-0.0387224 0.00838477 0)
(-0.0593923 0.0108967 0)
(-0.0773778 0.0102568 0)
(-0.0880508 0.00670537 0)
(-0.08897 0.00174418 0)
(-0.0792293 -0.00342817 0)
(-0.0595969 -0.0080278 0)
(-0.0337371 -0.0106006 0)
(-0.00601748 -0.00962867 0)
(0.0157269 -0.00481548 0)
(0.0235738 0.00259888 0)
(0.0157347 0.00626442 0)
(0.00423304 0.00459748 0)
(0.00155474 -0.00471785 0)
(0.00271471 -0.00366789 0)
(-0.000973007 0.000724918 0)
(-0.0116572 0.00634511 0)
(-0.0311313 0.0136642 0)
(-0.0598706 0.0229956 0)
(-0.0945284 0.0319833 0)
(-0.128408 0.0360751 0)
(-0.155572 0.0328496 0)
(-0.172683 0.0231741 0)
(-0.178264 0.0092924 0)
(-0.172284 -0.00647193 0)
(-0.155316 -0.0223832 0)
(-0.128037 -0.0359826 0)
(-0.0926845 -0.0436548 0)
(-0.0519724 -0.0411679 0)
(-0.0117779 -0.0261603 0)
(0.0161355 -0.00165873 0)
(0.0173715 0.0156604 0)
(0.00544481 0.0144518 0)
(-0.00037745 -0.00515442 0)
(-0.00560306 0.00130406 0)
(-0.019568 0.0141478 0)
(-0.0437117 0.030348 0)
(-0.0783798 0.0478964 0)
(-0.119071 0.0624316 0)
(-0.158404 0.0687864 0)
(-0.190894 0.0647412 0)
(-0.214326 0.0515071 0)
(-0.228048 0.0314736 0)
(-0.232022 0.00694636 0)
(-0.226855 -0.0200516 0)
(-0.212855 -0.0473809 0)
(-0.189532 -0.0714812 0)
(-0.156611 -0.0872762 0)
(-0.114078 -0.0878016 0)
(-0.0637573 -0.0663058 0)
(-0.013906 -0.0229844 0)
(0.00922926 0.0171059 0)
(0.00414177 0.0230204 0)
(-0.0034361 0.00111201 0)
(-0.0171767 0.0173893 0)
(-0.0424685 0.0404906 0)
(-0.0775002 0.0661379 0)
(-0.119535 0.0885186 0)
(-0.161527 0.101233 0)
(-0.197136 0.100792 0)
(-0.224255 0.0882586 0)
(-0.243054 0.0666521 0)
(-0.254094 0.0386405 0)
(-0.258175 0.00609685 0)
(-0.256089 -0.0296521 0)
(-0.247782 -0.0664295 0)
(-0.232212 -0.101316 0)
(-0.207402 -0.128919 0)
(-0.170675 -0.140525 0)
(-0.119559 -0.124084 0)
(-0.0560635 -0.0703816 0)
(-0.00111473 0.00279847 0)
(0.00471949 0.0275812 0)
(-0.00646669 0.0150735 0)
(-0.0278492 0.0434428 0)
(-0.0613483 0.0749824 0)
(-0.101299 0.105777 0)
(-0.143113 0.127777 0)
(-0.17989 0.13515 0)
(-0.208043 0.127196 0)
(-0.227778 0.107252 0)
(-0.240326 0.0791119 0)
(-0.247362 0.0455555 0)
(-0.250576 0.00813439 0)
(-0.250926 -0.0323621 0)
(-0.248222 -0.0748147 0)
(-0.241854 -0.117911 0)
(-0.229047 -0.15775 0)
(-0.205185 -0.185947 0)
(-0.164307 -0.187299 0)
(-0.101845 -0.141206 0)
(-0.0219398 -0.0389584 0)
(0.00722068 0.0264109 0)
(-0.00820078 0.0344474 0)
(-0.0339485 0.0749471 0)
(-0.0706726 0.111774 0)
(-0.10975 0.143685 0)
(-0.146316 0.162059 0)
(-0.174938 0.16266 0)
(-0.194411 0.147324 0)
(-0.206136 0.120926 0)
(-0.212047 0.087798 0)
(-0.214608 0.0509468 0)
(-0.215858 0.0118656 0)
(-0.216861 -0.0290517 0)
(-0.217848 -0.0722951 0)
(-0.218859 -0.118304 0)
(-0.217689 -0.165902 0)
(-0.209204 -0.209622 0)
(-0.185338 -0.235288 0)
(-0.137597 -0.21578 0)
(-0.0616817 -0.117509 0)
(0.005613 0.0137465 0)
(-0.00795906 0.0557457 0)
(-0.0340268 0.107294 0)
(-0.0693682 0.146404 0)
(-0.103718 0.176509 0)
(-0.1329 0.189535 0)
(-0.153196 0.182994 0)
(-0.165043 0.160765 0)
(-0.170448 0.128837 0)
(-0.17179 0.0920165 0)
(-0.171618 0.053386 0)
(-0.171566 0.0142334 0)
(-0.172384 -0.025419 0)
(-0.174644 -0.066776 0)
(-0.178881 -0.111255 0)
(-0.184386 -0.160051 0)
(-0.187423 -0.21201 0)
(-0.180014 -0.258037 0)
(-0.152186 -0.271846 0)
(-0.0977247 -0.20338 0)
(-0.00873168 -0.014766 0)
(-0.00586952 0.0755292 0)
(-0.0286355 0.136917 0)
(-0.0592596 0.176384 0)
(-0.0870361 0.203139 0)
(-0.108736 0.210284 0)
(-0.122175 0.196932 0)
(-0.128709 0.168636 0)
(-0.130576 0.132277 0)
(-0.130233 0.0929465 0)
(-0.129735 0.0534835 0)
(-0.129889 0.014684 0)
(-0.130922 -0.0238587 0)
(-0.133319 -0.0632822 0)
(-0.137802 -0.104988 0)
(-0.144954 -0.151115 0)
(-0.153353 -0.204093 0)
(-0.156844 -0.261808 0)
(-0.145013 -0.3044 0)
(-0.110796 -0.273989 0)
(-0.0303337 -0.0742539 0)
(-0.0025915 0.0908652 0)
(-0.0195756 0.161219 0)
(-0.0434999 0.200167 0)
(-0.0641689 0.222991 0)
(-0.0792036 0.224663 0)
(-0.0875692 0.205702 0)
(-0.0909734 0.172836 0)
(-0.0915234 0.133513 0)
(-0.0913565 0.0928995 0)
(-0.091764 0.0534075 0)
(-0.0928695 0.0152016 0)
(-0.0945829 -0.022567 0)
(-0.0970966 -0.0608156 0)
(-0.100956 -0.100406 0)
(-0.107335 -0.143179 0)
(-0.116937 -0.19328 0)
(-0.126416 -0.255092 0)
(-0.125208 -0.319344 0)
(-0.106365 -0.330892 0)
(-0.0368377 -0.160706 0)
(0.0011884 0.0995684 0)
(-0.00852223 0.17847 0)
(-0.0246525 0.217269 0)
(-0.0382825 0.236835 0)
(-0.0475796 0.234378 0)
(-0.0523067 0.211432 0)
(-0.0540312 0.175509 0)
(-0.054404 0.134467 0)
(-0.0549975 0.0934385 0)
(-0.0564537 0.0543239 0)
(-0.0585659 0.0167093 0)
(-0.0611633 -0.0205568 0)
(-0.0642482 -0.0582538 0)
(-0.0680444 -0.0967517 0)
(-0.0735408 -0.136962 0)
(-0.0823771 -0.182858 0)
(-0.0945272 -0.242954 0)
(-0.099834 -0.319889 0)
(-0.0944976 -0.368197 0)
(-0.0306952 -0.23924 0)
(0.00489104 0.100614 0)
(0.00289611 0.187706 0)
(-0.00513573 0.227453 0)
(-0.0120309 0.244619 0)
(-0.0162877 0.239337 0)
(-0.0180384 0.214137 0)
(-0.0185292 0.176882 0)
(-0.0188197 0.135442 0)
(-0.019894 0.0947234 0)
(-0.0219791 0.0562414 0)
(-0.0247659 0.0192887 0)
(-0.0281519 -0.0173863 0)
(-0.0321573 -0.0545881 0)
(-0.0367672 -0.0925046 0)
(-0.0425709 -0.131232 0)
(-0.0509326 -0.173532 0)
(-0.0647183 -0.229569 0)
(-0.0738856 -0.31325 0)
(-0.0808829 -0.392477 0)
(-0.0228565 -0.303426 0)
(0.00801069 0.0943738 0)
(0.0136421 0.188606 0)
(0.0135824 0.23085 0)
(0.0132368 0.247264 0)
(0.0139074 0.240946 0)
(0.0151913 0.215222 0)
(0.016171 0.177976 0)
(0.0163439 0.136922 0)
(0.0152876 0.0967515 0)
(0.0130381 0.0589006 0)
(0.00990315 0.0226815 0)
(0.00588691 -0.0131447 0)
(0.000837603 -0.0494824 0)
(-0.00514708 -0.0865515 0)
(-0.0124617 -0.124102 0)
(-0.0214298 -0.163438 0)
(-0.0373477 -0.214174 0)
(-0.0489531 -0.299416 0)
(-0.0679668 -0.404321 0)
(-0.0145139 -0.356276 0)
(0.00970062 0.0820107 0)
(0.0223301 0.181244 0)
(0.0297996 0.227037 0)
(0.035606 0.243792 0)
(0.0412048 0.237646 0)
(0.0461617 0.212826 0)
(0.0496239 0.176909 0)
(0.0512992 0.137223 0)
(0.0511229 0.0982555 0)
(0.0493157 0.0614901 0)
(0.0461737 0.0264312 0)
(0.0416471 -0.00808263 0)
(0.0355538 -0.0430031 0)
(0.0279516 -0.0786426 0)
(0.0181231 -0.11471 0)
(0.00703825 -0.151634 0)
(-0.0122218 -0.197665 0)
(-0.025004 -0.281262 0)
(-0.0562213 -0.406946 0)
(-0.00628561 -0.398323 0)
(0.00921694 0.0656989 0)
(0.0275377 0.166051 0)
(0.0423844 0.216291 0)
(0.0545945 0.235135 0)
(0.0656643 0.230751 0)
(0.0752222 0.208281 0)
(0.0823537 0.174853 0)
(0.086703 0.13729 0)
(0.0883317 0.099952 0)
(0.0875676 0.0645233 0)
(0.0847606 0.0308823 0)
(0.0798166 -0.00197946 0)
(0.0725211 -0.0347922 0)
(0.0630995 -0.0681978 0)
(0.0503129 -0.102036 0)
(0.0358213 -0.136319 0)
(0.0118498 -0.177661 0)
(-0.00118765 -0.258148 0)
(-0.0454547 -0.402953 0)
(0.00252062 -0.433142 0)
(0.00644839 0.0489177 0)
(0.0276881 0.145303 0)
(0.0486312 0.198305 0)
(0.0669545 0.218733 0)
(0.0840263 0.216255 0)
(0.0994292 0.196908 0)
(0.11187 0.167188 0)
(0.120617 0.133126 0)
(0.125568 0.0987676 0)
(0.127006 0.0658983 0)
(0.125221 0.0347789 0)
(0.12036 0.00462829 0)
(0.1119 -0.0250314 0)
(0.100498 -0.0550477 0)
(0.0840199 -0.0855167 0)
(0.0654368 -0.117124 0)
(0.0361245 -0.154743 0)
(0.0222961 -0.232381 0)
(-0.0353001 -0.395622 0)
(0.0131014 -0.461961 0)
(0.00220115 0.0350148 0)
(0.0221566 0.121509 0)
(0.0482906 0.175609 0)
(0.0731578 0.197833 0)
(0.0971552 0.197645 0)
(0.119505 0.181869 0)
(0.138528 0.156597 0)
(0.152979 0.126967 0)
(0.16242 0.0965834 0)
(0.16708 0.0671999 0)
(0.166943 0.0394159 0)
(0.162747 0.012826 0)
(0.153168 -0.0129651 0)
(0.139828 -0.0386887 0)
(0.119255 -0.064721 0)
(0.0964803 -0.0926733 0)
(0.0615992 -0.127463 0)
(0.0452251 -0.203502 0)
(-0.0237768 -0.384701 0)
(0.0279934 -0.483877 0)
(-0.00330828 0.0296521 0)
(0.0089908 0.100425 0)
(0.0346654 0.145475 0)
(0.0654342 0.165286 0)
(0.0974037 0.166437 0)
(0.128327 0.154596 0)
(0.155657 0.134827 0)
(0.17765 0.11116 0)
(0.193276 0.086625 0)
(0.20286 0.062761 0)
(0.20566 0.0403359 0)
(0.203356 0.0191924 0)
(0.193424 -0.000991455 0)
(0.179246 -0.0208111 0)
(0.155266 -0.0407471 0)
(0.129597 -0.063955 0)
(0.0893398 -0.0976059 0)
(0.0680086 -0.176762 0)
(-0.00545066 -0.368514 0)
(0.0516233 -0.490736 0)
(-0.0132843 0.0195558 0)
(-0.00751554 0.088225 0)
(0.0175992 0.12255 0)
(0.0534338 0.134628 0)
(0.0932588 0.133864 0)
(0.132454 0.124827 0)
(0.167722 0.11058 0)
(0.196749 0.0933239 0)
(0.21809 0.0754355 0)
(0.232736 0.05788 0)
(0.238672 0.0416595 0)
(0.239587 0.0265828 0)
(0.230714 0.0128998 0)
(0.219371 -0.000370632 0)
(0.195389 -0.0138798 0)
(0.172622 -0.0325212 0)
(0.129729 -0.0651748 0)
(0.10577 -0.144347 0)
(0.0364996 -0.325813 0)
(0.0919861 -0.455679 0)
(-0.105535 0.08315 0)
(-0.0774217 0.0694881 0)
(-0.0489334 0.0726672 0)
(0.0022659 0.0765033 0)
(0.0544648 0.0765251 0)
(0.10593 0.0722648 0)
(0.152022 0.0651422 0)
(0.193451 0.0560389 0)
(0.224974 0.0467325 0)
(0.252685 0.0374376 0)
(0.268362 0.029168 0)
(0.283579 0.0215225 0)
(0.284404 0.0151184 0)
(0.289066 0.00898428 0)
(0.273826 0.00229418 0)
(0.267611 -0.00882161 0)
(0.229391 -0.0344642 0)
(0.216691 -0.0948633 0)
(0.149833 -0.229677 0)
(0.170596 -0.341513 0)
(0.130257 0.103977 0)
(0.158938 0.0758099 0)
(0.213115 0.0538498 0)
(0.271514 0.0420844 0)
(0.323601 0.0361857 0)
(0.375288 0.0320738 0)
(0.419108 0.0289696 0)
(0.463679 0.0256089 0)
(0.496228 0.0229518 0)
(0.531087 0.01979 0)
(0.550376 0.0176787 0)
(0.576211 0.0147811 0)
(0.582587 0.0133925 0)
(0.601312 0.0106102 0)
(0.593295 0.00968619 0)
(0.602416 0.00527653 0)
(0.567264 0.00033345 0)
(0.547763 -0.0181468 0)
(0.436239 -0.0503677 0)
(0.337044 -0.101409 0)
)
;

boundaryField
{
    movingWall
    {
        type            fixedValue;
        value           uniform (1 0 0);
    }
    fixedWalls
    {
        type            noSlip;
    }
    frontAndBack
    {
        type            empty;
    }
}


// ************************************************************************* //
