/*--------------------------------*- C++ -*----------------------------------*\
| =========                 |                                                 |
| \\      /  F ield         | OpenFOAM: The Open Source CFD Toolbox           |
|  \\    /   O peration     | Version:  2212                                  |
|   \\  /    A nd           | Website:  www.openfoam.com                      |
|    \\/     M anipulation  |                                                 |
\*---------------------------------------------------------------------------*/
FoamFile
{
    version     2.0;
    format      ascii;
    arch        "LSB;label=32;scalar=64";
    class       volScalarField;
    location    "1.26";
    object      p;
}
// * * * * * * * * * * * * * * * * * * * * * * * * * * * * * * * * * * * * * //

dimensions      [0 2 -2 0 0 0 0];

internalField   nonuniform List<scalar> 
400
(
2.35935e-09
-0.000107131
-0.000252442
-0.000444645
-0.000675432
-0.000913202
-0.00110056
-0.00115347
-0.000968551
-0.000448275
0.000457411
0.00171692
0.00320001
0.00450304
0.00523842
0.00521371
0.0044547
0.00358192
0.00297708
0.00285869
0.000117173
6.37921e-06
-0.000112403
-0.000272879
-0.00047331
-0.000689994
-0.000887758
-0.00101143
-0.000968925
-0.000637179
8.99789e-05
0.00123596
0.0026293
0.00392748
0.00471685
0.00475249
0.0041256
0.00325092
0.00273664
0.00267935
0.000246719
0.000101892
-1.93838e-05
-0.000198048
-0.000456011
-0.000794212
-0.00120409
-0.00163891
-0.00197653
-0.00201708
-0.00155175
-0.000508524
0.000929653
0.0024368
0.00357023
0.00396474
0.0035939
0.00285092
0.00216638
0.00204979
0.000274207
9.49456e-05
-5.29738e-05
-0.000303598
-0.000717648
-0.00134528
-0.00222397
-0.0033142
-0.00443444
-0.00524994
-0.00538706
-0.00468253
-0.00329188
-0.00145063
0.000423582
0.00182547
0.00239406
0.00216624
0.00149579
0.00101518
6.42049e-05
-0.000151029
-0.00035871
-0.000750069
-0.00144573
-0.00258213
-0.00426815
-0.00644584
-0.00878729
-0.010742
-0.0117743
-0.0116459
-0.0104453
-0.00831106
-0.00556818
-0.00273061
-0.000430608
0.000774674
0.000765029
-0.00052654
-0.000498017
-0.000755252
-0.00106557
-0.00167968
-0.00280197
-0.00468355
-0.00748775
-0.0110562
-0.0148184
-0.0179987
-0.0199947
-0.0205358
-0.0195796
-0.017282
-0.013881
-0.00971571
-0.00539579
-0.0019846
-0.000702077
-0.00251437
-0.00147036
-0.00177763
-0.00223455
-0.00314527
-0.00480381
-0.00756631
-0.0115873
-0.0165201
-0.0214937
-0.0255553
-0.0281326
-0.0290211
-0.0282088
-0.0259304
-0.0223814
-0.0176468
-0.0119543
-0.00638029
-0.00330094
-0.00417644
-0.00282883
-0.00318832
-0.00381781
-0.00505467
-0.0072585
-0.0108431
-0.015895
-0.0218674
-0.0276334
-0.0321441
-0.0349011
-0.0358123
-0.0349984
-0.0327459
-0.0293071
-0.0246813
-0.0187046
-0.0118727
-0.0065753
-0.00458765
-0.00446138
-0.00486085
-0.00565394
-0.00718048
-0.00982166
-0.0140006
-0.0197298
-0.0263339
-0.0325366
-0.037257
-0.0400572
-0.0409083
-0.0399962
-0.0376581
-0.034271
-0.0299594
-0.0244072
-0.0174116
-0.0103955
-0.0056736
-0.00619928
-0.00660449
-0.00751463
-0.00923394
-0.0121213
-0.0165861
-0.0226037
-0.0294767
-0.0358813
-0.0407287
-0.0435852
-0.0444082
-0.043374
-0.0408572
-0.0373739
-0.0332807
-0.0283861
-0.0220347
-0.0147524
-0.00841755
-0.00786886
-0.00822822
-0.00917946
-0.0109543
-0.0138627
-0.0182984
-0.0242439
-0.0310652
-0.0374768
-0.0423917
-0.0453205
-0.0461647
-0.0450282
-0.0423241
-0.0386601
-0.0346747
-0.0304235
-0.0250546
-0.0185779
-0.0118625
-0.00931828
-0.0095942
-0.0104859
-0.0121566
-0.0148699
-0.0189956
-0.0245506
-0.030995
-0.0371885
-0.0420687
-0.0450436
-0.0459297
-0.0447665
-0.041969
-0.0381321
-0.0342491
-0.0305891
-0.0261855
-0.0207785
-0.014243
-0.0104818
-0.0106343
-0.0113524
-0.0127638
-0.0150982
-0.0186705
-0.0235539
-0.0293365
-0.0350769
-0.0397642
-0.0427154
-0.0436405
-0.0425569
-0.0398045
-0.0360883
-0.0322981
-0.0291441
-0.0254561
-0.0209805
-0.0146081
-0.0113486
-0.011354
-0.0117886
-0.0127906
-0.0145891
-0.0174513
-0.0214863
-0.0264214
-0.0315173
-0.0358553
-0.0387091
-0.0397049
-0.0388157
-0.03631
-0.0328736
-0.0293429
-0.0264712
-0.0232403
-0.0196361
-0.0129381
-0.0119541
-0.0118071
-0.0118631
-0.0123413
-0.013522
-0.0156436
-0.0188152
-0.0228659
-0.0272368
-0.0311357
-0.0338482
-0.0349388
-0.0343241
-0.0321905
-0.0291412
-0.0259204
-0.023252
-0.0202119
-0.0178216
-0.00952052
-0.0123873
-0.0120815
-0.0116096
-0.0114745
-0.0120407
-0.0135168
-0.0159761
-0.0192867
-0.02302
-0.0265152
-0.0291068
-0.0303147
-0.0299964
-0.0282888
-0.0256399
-0.0226784
-0.0200784
-0.0170339
-0.0158735
-0.00325259
-0.0126978
-0.0122909
-0.0111575
-0.0103799
-0.0103895
-0.0113736
-0.0133473
-0.0161623
-0.0194628
-0.0226893
-0.0252447
-0.0266306
-0.0266369
-0.0252922
-0.0229563
-0.0200649
-0.017203
-0.013708
-0.0108848
0.0112353
-0.0139037
-0.0125484
-0.0103104
-0.0088787
-0.00851602
-0.00925092
-0.0110127
-0.0136151
-0.0167434
-0.0198949
-0.0225422
-0.0241674
-0.0245226
-0.0234949
-0.0213165
-0.0180917
-0.0140991
-0.00741789
0.00543093
0.0466244
-0.0123667
-0.0134099
-0.0100433
-0.00777939
-0.00703366
-0.00762657
-0.00933957
-0.0119137
-0.0150666
-0.0182939
-0.0211352
-0.0230261
-0.0237235
-0.0229134
-0.0206123
-0.0160929
-0.00804938
0.00905579
0.0453239
0.115952
-0.0299019
-0.0133734
-0.00652356
-0.00448149
-0.00430937
-0.00522831
-0.00715588
-0.00990778
-0.0132272
-0.0166082
-0.0196235
-0.021738
-0.0226987
-0.02203
-0.0191378
-0.0118782
0.0041228
0.0395804
0.108218
0.212506
)
;

boundaryField
{
    movingWall
    {
        type            zeroGradient;
    }
    fixedWalls
    {
        type            zeroGradient;
    }
    frontAndBack
    {
        type            empty;
    }
}


// ************************************************************************* //
