/*--------------------------------*- C++ -*----------------------------------*\
| =========                 |                                                 |
| \\      /  F ield         | OpenFOAM: The Open Source CFD Toolbox           |
|  \\    /   O peration     | Version:  2212                                  |
|   \\  /    A nd           | Website:  www.openfoam.com                      |
|    \\/     M anipulation  |                                                 |
\*---------------------------------------------------------------------------*/
FoamFile
{
    version     2.0;
    format      ascii;
    arch        "LSB;label=32;scalar=64";
    class       volVectorField;
    location    "3.06";
    object      U;
}
// * * * * * * * * * * * * * * * * * * * * * * * * * * * * * * * * * * * * * //

dimensions      [0 1 -1 0 0 0 0];

internalField   nonuniform List<vector> 
400
(
(0.00157396 -0.00159275 0)
(0.00449772 -0.00177824 0)
(0.00606817 -0.00113685 0)
(0.00510904 -0.000531604 0)
(0.00108431 0.000221635 0)
(-0.00706217 0.0017247 0)
(-0.0203572 0.00459991 0)
(-0.038609 0.00833755 0)
(-0.059199 0.0108431 0)
(-0.0771376 0.0102212 0)
(-0.0878081 0.00669422 0)
(-0.0887595 0.00175174 0)
(-0.0790793 -0.00340611 0)
(-0.0595203 -0.00799778 0)
(-0.0337366 -0.0105695 0)
(-0.0060832 -0.00960613 0)
(0.0156213 -0.00481658 0)
(0.0234731 0.00257966 0)
(0.0156842 0.00624075 0)
(0.00422375 0.00458368 0)
(0.00153533 -0.00467519 0)
(0.00266339 -0.00362417 0)
(-0.00103352 0.000740589 0)
(-0.0116848 0.00633122 0)
(-0.0310767 0.0136124 0)
(-0.0596886 0.0228928 0)
(-0.0942122 0.0318417 0)
(-0.127996 0.0359411 0)
(-0.155116 0.0327612 0)
(-0.172226 0.0231435 0)
(-0.177837 0.00931448 0)
(-0.171908 -0.00640824 0)
(-0.155008 -0.022286 0)
(-0.127805 -0.0358674 0)
(-0.0925345 -0.0435396 0)
(-0.0519097 -0.0410783 0)
(-0.0117951 -0.0261278 0)
(0.0160617 -0.00169494 0)
(0.0173189 0.0155992 0)
(0.00543489 0.0144108 0)
(-0.000391447 -0.00508177 0)
(-0.00562095 0.00135784 0)
(-0.0195461 0.0141207 0)
(-0.0435909 0.0302294 0)
(-0.0781108 0.0476955 0)
(-0.118655 0.0621879 0)
(-0.157885 0.0685591 0)
(-0.190323 0.0645757 0)
(-0.213741 0.051422 0)
(-0.227477 0.03147 0)
(-0.231485 0.00701677 0)
(-0.226362 -0.0199174 0)
(-0.212412 -0.047196 0)
(-0.189148 -0.0712657 0)
(-0.156295 -0.0870571 0)
(-0.113844 -0.0876153 0)
(-0.0636254 -0.0661983 0)
(-0.0138883 -0.023 0)
(0.00921009 0.017024 0)
(0.00414191 0.0229612 0)
(-0.00342815 0.00118083 0)
(-0.0171242 0.017391 0)
(-0.0423221 0.0403523 0)
(-0.0772117 0.0658731 0)
(-0.119094 0.0881823 0)
(-0.160976 0.100899 0)
(-0.196531 0.100525 0)
(-0.223633 0.0880852 0)
(-0.242443 0.0665792 0)
(-0.253512 0.038663 0)
(-0.257631 0.00620625 0)
(-0.255583 -0.0294652 0)
(-0.247315 -0.0661825 0)
(-0.231784 -0.101025 0)
(-0.207019 -0.12861 0)
(-0.170348 -0.14023 0)
(-0.119316 -0.123857 0)
(-0.0559407 -0.0702887 0)
(-0.00111556 0.00273451 0)
(0.00471742 0.0275162 0)
(-0.00643976 0.0150903 0)
(-0.0277335 0.0433393 0)
(-0.061101 0.0747083 0)
(-0.100906 0.105381 0)
(-0.1426 0.127346 0)
(-0.179318 0.134768 0)
(-0.207459 0.126914 0)
(-0.22721 0.107085 0)
(-0.239792 0.0790583 0)
(-0.246867 0.0456037 0)
(-0.250118 0.00827151 0)
(-0.250502 -0.0321518 0)
(-0.247831 -0.0745493 0)
(-0.241485 -0.117601 0)
(-0.228698 -0.157408 0)
(-0.204858 -0.185592 0)
(-0.164023 -0.186969 0)
(-0.101643 -0.140968 0)
(-0.0218886 -0.038922 0)
(0.00720474 0.026352 0)
(-0.00816232 0.0343745 0)
(-0.0337978 0.0747188 0)
(-0.0703812 0.111373 0)
(-0.109334 0.143188 0)
(-0.145822 0.161568 0)
(-0.174425 0.162257 0)
(-0.193912 0.147046 0)
(-0.205669 0.120778 0)
(-0.211619 0.087771 0)
(-0.214217 0.0510238 0)
(-0.2155 0.0120275 0)
(-0.216537 -0.0288272 0)
(-0.217555 -0.0720249 0)
(-0.218586 -0.118001 0)
(-0.217428 -0.165574 0)
(-0.208947 -0.209273 0)
(-0.185089 -0.234927 0)
(-0.137376 -0.215442 0)
(-0.0615315 -0.117289 0)
(0.00559539 0.0137197 0)
(-0.00792078 0.0555736 0)
(-0.0338746 0.106945 0)
(-0.0690864 0.1459 0)
(-0.103341 0.17594 0)
(-0.132478 0.189011 0)
(-0.152776 0.182588 0)
(-0.164643 0.160501 0)
(-0.170075 0.128713 0)
(-0.171442 0.0920192 0)
(-0.171292 0.0534962 0)
(-0.171263 0.0144307 0)
(-0.172109 -0.0251576 0)
(-0.1744 -0.0664698 0)
(-0.178666 -0.110927 0)
(-0.184193 -0.159716 0)
(-0.187244 -0.211674 0)
(-0.179839 -0.257694 0)
(-0.152012 -0.271492 0)
(-0.0975541 -0.203067 0)
(-0.00869654 -0.0147458 0)
(-0.00584195 0.0752656 0)
(-0.0285101 0.136465 0)
(-0.0590269 0.1758 0)
(-0.0867352 0.20252 0)
(-0.108411 0.209739 0)
(-0.121856 0.196526 0)
(-0.128403 0.168384 0)
(-0.130282 0.13217 0)
(-0.129948 0.0929676 0)
(-0.129459 0.0536162 0)
(-0.12963 0.0149102 0)
(-0.130686 -0.0235608 0)
(-0.133107 -0.062935 0)
(-0.137617 -0.104616 0)
(-0.144798 -0.150742 0)
(-0.153223 -0.203736 0)
(-0.156731 -0.261467 0)
(-0.144907 -0.304053 0)
(-0.110684 -0.273643 0)
(-0.0302619 -0.0740904 0)
(-0.00258075 0.09053 0)
(-0.0194929 0.160685 0)
(-0.0433372 0.199524 0)
(-0.0639612 0.222337 0)
(-0.0789837 0.224106 0)
(-0.087353 0.205295 0)
(-0.0907603 0.172586 0)
(-0.0913114 0.133407 0)
(-0.0911451 0.092924 0)
(-0.0915604 0.0535488 0)
(-0.0926829 0.0154423 0)
(-0.0944162 -0.0222512 0)
(-0.0969461 -0.0604505 0)
(-0.10082 -0.100014 0)
(-0.107217 -0.142778 0)
(-0.116844 -0.192894 0)
(-0.126345 -0.254739 0)
(-0.125156 -0.319002 0)
(-0.106302 -0.330524 0)
(-0.0368001 -0.160401 0)
(0.00117886 0.0991941 0)
(-0.0084917 0.177881 0)
(-0.0245722 0.216588 0)
(-0.0381773 0.236158 0)
(-0.0474696 0.233807 0)
(-0.0521971 0.211015 0)
(-0.0539184 0.17525 0)
(-0.0542873 0.134354 0)
(-0.0548803 0.0934616 0)
(-0.056346 0.054472 0)
(-0.0584755 0.0169619 0)
(-0.0610885 -0.0202303 0)
(-0.0641802 -0.0578836 0)
(-0.0679764 -0.0963559 0)
(-0.0734732 -0.136551 0)
(-0.0823215 -0.182449 0)
(-0.0944915 -0.242581 0)
(-0.0998266 -0.319554 0)
(-0.0944763 -0.367853 0)
(-0.0306903 -0.238926 0)
(0.00485928 0.100238 0)
(0.00287164 0.187089 0)
(-0.00514019 0.226751 0)
(-0.0120285 0.24393 0)
(-0.0162867 0.238758 0)
(-0.0180372 0.213714 0)
(-0.0185231 0.176615 0)
(-0.018809 0.135323 0)
(-0.019883 0.0947464 0)
(-0.0219758 0.0563959 0)
(-0.0247738 0.0195502 0)
(-0.0281668 -0.017055 0)
(-0.0321688 -0.0542219 0)
(-0.0367683 -0.092121 0)
(-0.0425585 -0.13083 0)
(-0.0509169 -0.173114 0)
(-0.0647107 -0.229173 0)
(-0.0739072 -0.312903 0)
(-0.0808848 -0.392134 0)
(-0.0228608 -0.303106 0)
(0.0079568 0.094036 0)
(0.0135626 0.187994 0)
(0.0134949 0.230149 0)
(0.0131376 0.246577 0)
(0.013798 0.240364 0)
(0.015079 0.214789 0)
(0.0160623 0.177698 0)
(0.01624 0.136794 0)
(0.0151868 0.0967709 0)
(0.0129383 0.0590564 0)
(0.00980527 0.0229461 0)
(0.00579617 -0.0128122 0)
(0.000761644 -0.0491209 0)
(-0.00520592 -0.0861824 0)
(-0.0125003 -0.123719 0)
(-0.021456 -0.163028 0)
(-0.0373707 -0.213767 0)
(-0.0490035 -0.299071 0)
(-0.0679898 -0.404002 0)
(-0.0145264 -0.355973 0)
(0.00963115 0.0817493 0)
(0.0222012 0.180672 0)
(0.0296374 0.226357 0)
(0.0354157 0.243119 0)
(0.040994 0.23707 0)
(0.0459415 0.212393 0)
(0.0494029 0.176626 0)
(0.0510814 0.137091 0)
(0.050911 0.0982696 0)
(0.0491141 0.061639 0)
(0.0459897 0.0266869 0)
(0.0414876 -0.00776251 0)
(0.0354221 -0.0426526 0)
(0.0278442 -0.0782876 0)
(0.0180411 -0.114345 0)
(0.00697339 -0.151235 0)
(-0.012274 -0.19725 0)
(-0.0250766 -0.280907 0)
(-0.0562577 -0.406637 0)
(-0.0063013 -0.398043 0)
(0.00914805 0.0655425 0)
(0.0273744 0.165558 0)
(0.0421606 0.215662 0)
(0.0543236 0.234496 0)
(0.0653589 0.230192 0)
(0.0748966 0.20785 0)
(0.0820198 0.174564 0)
(0.0863691 0.137144 0)
(0.0880059 0.099946 0)
(0.0872602 0.0646465 0)
(0.0844797 0.031109 0)
(0.0795792 -0.00168172 0)
(0.0723282 -0.034464 0)
(0.06294 -0.0678648 0)
(0.0501849 -0.101695 0)
(0.0357136 -0.135944 0)
(0.0117605 -0.177256 0)
(-0.00128202 -0.2578 0)
(-0.0455039 -0.402668 0)
(0.0025002 -0.432896 0)
(0.00640013 0.0488716 0)
(0.0275143 0.144919 0)
(0.0483688 0.197749 0)
(0.0666269 0.218143 0)
(0.0836498 0.215728 0)
(0.0990192 0.196494 0)
(0.11144 0.166906 0)
(0.120181 0.132977 0)
(0.125138 0.0987463 0)
(0.126596 0.0659938 0)
(0.124848 0.0349684 0)
(0.120038 0.0048867 0)
(0.111627 -0.0247432 0)
(0.100271 -0.0547496 0)
(0.0838364 -0.0852067 0)
(0.0652792 -0.116778 0)
(0.0359921 -0.154357 0)
(0.022191 -0.232043 0)
(-0.0353591 -0.395362 0)
(0.0130736 -0.461761 0)
(0.00218323 0.0350568 0)
(0.0220072 0.121259 0)
(0.0480195 0.175161 0)
(0.0727967 0.197321 0)
(0.0967246 0.197169 0)
(0.119021 0.181483 0)
(0.13801 0.156323 0)
(0.152443 0.126809 0)
(0.161885 0.0965358 0)
(0.166565 0.0672528 0)
(0.166466 0.0395502 0)
(0.162323 0.0130181 0)
(0.152804 -0.0127412 0)
(0.13952 -0.0384447 0)
(0.119002 -0.0644567 0)
(0.0962609 -0.0923732 0)
(0.0614132 -0.127119 0)
(0.0451055 -0.203211 0)
(-0.0238516 -0.384506 0)
(0.0279544 -0.483733 0)
(-0.00329552 0.0297573 0)
(0.00888377 0.100304 0)
(0.0344237 0.145138 0)
(0.0650854 0.164867 0)
(0.096966 0.166034 0)
(0.127816 0.154262 0)
(0.155091 0.134585 0)
(0.177051 0.111014 0)
(0.192668 0.086572 0)
(0.202261 0.0627899 0)
(0.205094 0.0404321 0)
(0.202832 0.0193362 0)
(0.192964 -0.000813395 0)
(0.178845 -0.0206141 0)
(0.154929 -0.0405312 0)
(0.129306 -0.0637119 0)
(0.0891036 -0.0973232 0)
(0.0678752 -0.17651 0)
(-0.00553161 -0.368382 0)
(0.0515832 -0.490652 0)
(-0.0132097 0.019661 0)
(-0.00751794 0.0882212 0)
(0.017432 0.122373 0)
(0.0531304 0.134354 0)
(0.0928304 0.13357 0)
(0.131918 0.124565 0)
(0.167105 0.110376 0)
(0.196077 0.0931866 0)
(0.217396 0.0753658 0)
(0.232039 0.0578703 0)
(0.238005 0.0417026 0)
(0.238959 0.0266635 0)
(0.230152 0.0130137 0)
(0.218863 -0.000240572 0)
(0.194958 -0.0137274 0)
(0.172263 -0.0323515 0)
(0.129449 -0.0649832 0)
(0.105603 -0.144213 0)
(0.0364169 -0.325782 0)
(0.0919556 -0.455654 0)
(-0.105488 0.0832218 0)
(-0.0773958 0.0695263 0)
(-0.0489834 0.0725812 0)
(0.00209878 0.0763526 0)
(0.0541694 0.0763508 0)
(0.105516 0.0721004 0)
(0.151515 0.0650078 0)
(0.192873 0.0559419 0)
(0.224363 0.046676 0)
(0.25206 0.0374165 0)
(0.267759 0.0291797 0)
(0.283005 0.0215567 0)
(0.283889 0.0151728 0)
(0.288606 0.00904982 0)
(0.273448 0.0023763 0)
(0.267297 -0.00873736 0)
(0.229147 -0.0343787 0)
(0.216551 -0.0948131 0)
(0.149788 -0.229668 0)
(0.170587 -0.341512 0)
(0.130286 0.104004 0)
(0.159002 0.0758722 0)
(0.213211 0.0539131 0)
(0.271592 0.0421292 0)
(0.323627 0.0362102 0)
(0.375236 0.0320835 0)
(0.41898 0.0289726 0)
(0.463484 0.0256102 0)
(0.495989 0.0229557 0)
(0.530822 0.019797 0)
(0.550108 0.01769 0)
(0.575954 0.0147952 0)
(0.582358 0.0134101 0)
(0.601116 0.0106295 0)
(0.593144 0.00970799 0)
(0.602309 0.00529697 0)
(0.567204 0.000353641 0)
(0.547753 -0.0181298 0)
(0.436268 -0.0503597 0)
(0.337064 -0.101407 0)
)
;

boundaryField
{
    movingWall
    {
        type            fixedValue;
        value           uniform (1 0 0);
    }
    fixedWalls
    {
        type            noSlip;
    }
    frontAndBack
    {
        type            empty;
    }
}


// ************************************************************************* //
