/*--------------------------------*- C++ -*----------------------------------*\
| =========                 |                                                 |
| \\      /  F ield         | OpenFOAM: The Open Source CFD Toolbox           |
|  \\    /   O peration     | Version:  2212                                  |
|   \\  /    A nd           | Website:  www.openfoam.com                      |
|    \\/     M anipulation  |                                                 |
\*---------------------------------------------------------------------------*/
FoamFile
{
    version     2.0;
    format      ascii;
    arch        "LSB;label=32;scalar=64";
    class       volVectorField;
    location    "2.32";
    object      U;
}
// * * * * * * * * * * * * * * * * * * * * * * * * * * * * * * * * * * * * * //

dimensions      [0 1 -1 0 0 0 0];

internalField   nonuniform List<vector> 
400
(
(0.00133097 -0.00138009 0)
(0.00371052 -0.00149856 0)
(0.00485254 -0.00100223 0)
(0.00382205 -0.000444589 0)
(2.78607e-05 0.000291498 0)
(-0.00751616 0.00167477 0)
(-0.0197464 0.00418289 0)
(-0.0365516 0.00746335 0)
(-0.0556895 0.00982701 0)
(-0.0727075 0.00948991 0)
(-0.0831708 0.00637297 0)
(-0.0845017 0.00176171 0)
(-0.0756979 -0.00311874 0)
(-0.0573376 -0.00750932 0)
(-0.032918 -0.00998196 0)
(-0.0066148 -0.0090955 0)
(0.014086 -0.00464707 0)
(0.021716 0.00232348 0)
(0.0146713 0.00581042 0)
(0.00400102 0.00429365 0)
(0.00112495 -0.00378291 0)
(0.00150636 -0.00270928 0)
(-0.00243182 0.00103861 0)
(-0.0123699 0.00599829 0)
(-0.0301036 0.0125502 0)
(-0.0562654 0.0209182 0)
(-0.0883364 0.0292298 0)
(-0.12051 0.0335432 0)
(-0.146959 0.0311853 0)
(-0.164077 0.0225086 0)
(-0.170175 0.00951712 0)
(-0.165018 -0.00550256 0)
(-0.149151 -0.0207494 0)
(-0.12317 -0.0338709 0)
(-0.0892878 -0.0413395 0)
(-0.0502131 -0.0391244 0)
(-0.0116829 -0.0250616 0)
(0.0149021 -0.0020027 0)
(0.0163249 0.0145334 0)
(0.00520469 0.013576 0)
(-0.000734011 -0.003542 0)
(-0.00611598 0.00253326 0)
(-0.0192441 0.0135844 0)
(-0.0413028 0.0278072 0)
(-0.0729527 0.0437631 0)
(-0.110881 0.0577063 0)
(-0.148633 0.0646974 0)
(-0.180637 0.0619938 0)
(-0.204207 0.0501901 0)
(-0.218396 0.0314431 0)
(-0.223 0.00805078 0)
(-0.218509 -0.0179028 0)
(-0.205238 -0.0442886 0)
(-0.182773 -0.0676445 0)
(-0.150882 -0.0830638 0)
(-0.109651 -0.0838541 0)
(-0.0610857 -0.0636066 0)
(-0.0133606 -0.0226291 0)
(0.00882935 0.0156914 0)
(0.00409147 0.0217672 0)
(-0.00328442 0.00271497 0)
(-0.0161203 0.017598 0)
(-0.0394577 0.0376034 0)
(-0.0715973 0.0606507 0)
(-0.110788 0.0819391 0)
(-0.151207 0.0952737 0)
(-0.186632 0.0965407 0)
(-0.214225 0.0858523 0)
(-0.233722 0.0658409 0)
(-0.245465 0.0391501 0)
(-0.25012 0.00776551 0)
(-0.248474 -0.0268705 0)
(-0.240559 -0.0626214 0)
(-0.225385 -0.0965423 0)
(-0.201082 -0.123429 0)
(-0.165078 -0.134854 0)
(-0.115207 -0.119295 0)
(-0.0536992 -0.0679917 0)
(-0.00109809 0.00182271 0)
(0.00464417 0.0262079 0)
(-0.00591491 0.0156519 0)
(-0.0254485 0.0414779 0)
(-0.0562355 0.069357 0)
(-0.0933821 0.0979094 0)
(-0.133394 0.119917 0)
(-0.17 0.129035 0)
(-0.198991 0.123408 0)
(-0.219809 0.105487 0)
(-0.233382 0.0788997 0)
(-0.241155 0.0465035 0)
(-0.244784 0.0100342 0)
(-0.245322 -0.0295895 0)
(-0.242729 -0.071165 0)
(-0.236336 -0.113277 0)
(-0.223542 -0.152144 0)
(-0.199825 -0.179622 0)
(-0.159487 -0.181002 0)
(-0.0982896 -0.136427 0)
(-0.0209513 -0.0380332 0)
(0.00694429 0.0251906 0)
(-0.0074136 0.0331729 0)
(-0.0308354 0.0704347 0)
(-0.0647212 0.103763 0)
(-0.10162 0.134297 0)
(-0.137492 0.153833 0)
(-0.166905 0.157056 0)
(-0.187708 0.144395 0)
(-0.200706 0.120009 0)
(-0.207601 0.0882361 0)
(-0.210696 0.0522555 0)
(-0.212139 0.0138149 0)
(-0.213136 -0.026522 0)
(-0.214024 -0.0690512 0)
(-0.214839 -0.11419 0)
(-0.213485 -0.160823 0)
(-0.204872 -0.203628 0)
(-0.181059 -0.228681 0)
(-0.133768 -0.209451 0)
(-0.0590854 -0.113488 0)
(0.0053204 0.0130521 0)
(-0.0071866 0.0524407 0)
(-0.0309212 0.100399 0)
(-0.0636921 0.136601 0)
(-0.0965686 0.166325 0)
(-0.125827 0.181525 0)
(-0.147317 0.178244 0)
(-0.160518 0.15885 0)
(-0.167019 0.128801 0)
(-0.169012 0.0930551 0)
(-0.169018 0.0549996 0)
(-0.168876 0.016256 0)
(-0.169484 -0.0229316 0)
(-0.171491 -0.0636014 0)
(-0.175541 -0.107241 0)
(-0.180967 -0.15515 0)
(-0.184016 -0.206311 0)
(-0.176655 -0.251681 0)
(-0.148938 -0.265176 0)
(-0.0947329 -0.197734 0)
(-0.00821213 -0.0146124 0)
(-0.00531934 0.0703738 0)
(-0.0260864 0.128022 0)
(-0.0545812 0.165295 0)
(-0.0814251 0.192553 0)
(-0.103555 0.20269 0)
(-0.118158 0.193058 0)
(-0.125786 0.167652 0)
(-0.1284 0.132967 0)
(-0.128335 0.094395 0)
(-0.127761 0.0552156 0)
(-0.127701 0.016626 0)
(-0.128436 -0.0215205 0)
(-0.130483 -0.0602296 0)
(-0.134726 -0.100959 0)
(-0.141846 -0.146045 0)
(-0.150434 -0.198201 0)
(-0.154195 -0.255384 0)
(-0.142612 -0.297599 0)
(-0.10849 -0.267557 0)
(-0.0291887 -0.0717224 0)
(-0.00236885 0.0842648 0)
(-0.0178509 0.150724 0)
(-0.0401261 0.188156 0)
(-0.0601934 0.212218 0)
(-0.0756904 0.217499 0)
(-0.0849507 0.202554 0)
(-0.0890958 0.172554 0)
(-0.090065 0.134679 0)
(-0.0899434 0.0945227 0)
(-0.0902149 0.0550496 0)
(-0.091132 0.016879 0)
(-0.0925642 -0.0205808 0)
(-0.0947164 -0.0581269 0)
(-0.0982699 -0.0966053 0)
(-0.104557 -0.13805 0)
(-0.114394 -0.187081 0)
(-0.124306 -0.248391 0)
(-0.123559 -0.312382 0)
(-0.104705 -0.323709 0)
(-0.0360848 -0.155563 0)
(0.00102954 0.0921337 0)
(-0.00775708 0.166862 0)
(-0.0227163 0.204622 0)
(-0.0359274 0.225894 0)
(-0.04552 0.227411 0)
(-0.0507488 0.208668 0)
(-0.0528436 0.175611 0)
(-0.0533712 0.135879 0)
(-0.0538932 0.0951234 0)
(-0.0552361 0.0558848 0)
(-0.0572335 0.0182012 0)
(-0.0596222 -0.0188473 0)
(-0.0624013 -0.0559009 0)
(-0.0658761 -0.0932237 0)
(-0.0711955 -0.131824 0)
(-0.0802126 -0.176253 0)
(-0.0928833 -0.235742 0)
(-0.0989102 -0.312756 0)
(-0.093513 -0.360979 0)
(-0.030417 -0.233293 0)
(0.00432353 0.0930387 0)
(0.00266128 0.175399 0)
(-0.00464868 0.214317 0)
(-0.0112014 0.233475 0)
(-0.0154905 0.232379 0)
(-0.0173243 0.211491 0)
(-0.0178408 0.177122 0)
(-0.0180866 0.136959 0)
(-0.0190206 0.0964521 0)
(-0.0210074 0.0577917 0)
(-0.0237366 0.0207034 0)
(-0.0269999 -0.0158456 0)
(-0.0308191 -0.0524942 0)
(-0.0351968 -0.089255 0)
(-0.0408114 -0.126202 0)
(-0.0492632 -0.166619 0)
(-0.0635124 -0.221721 0)
(-0.0735518 -0.305645 0)
(-0.0803775 -0.384951 0)
(-0.022779 -0.2969 0)
(0.00699453 0.0873915 0)
(0.0123781 0.176125 0)
(0.0126188 0.217452 0)
(0.0125044 0.235864 0)
(0.0133566 0.233707 0)
(0.0149354 0.212296 0)
(0.0162389 0.177995 0)
(0.0166816 0.138312 0)
(0.0158662 0.0984495 0)
(0.0137591 0.0604665 0)
(0.0106783 0.0241051 0)
(0.00671548 -0.0116456 0)
(0.0017211 -0.0474808 0)
(-0.00419637 -0.083399 0)
(-0.0114074 -0.119125 0)
(-0.0204384 -0.156303 0)
(-0.0367202 -0.205801 0)
(-0.0492802 -0.291537 0)
(-0.0679609 -0.396902 0)
(-0.0146316 -0.349622 0)
(0.00832289 0.0763809 0)
(0.0200473 0.169185 0)
(0.0274143 0.213562 0)
(0.0333281 0.232066 0)
(0.0392286 0.229906 0)
(0.0447346 0.209379 0)
(0.0488043 0.176534 0)
(0.0509798 0.138403 0)
(0.0511728 0.0999092 0)
(0.0495751 0.0630996 0)
(0.0465182 0.0279143 0)
(0.0419774 -0.00656671 0)
(0.0358616 -0.0410115 0)
(0.0281616 -0.0755105 0)
(0.0182909 -0.109744 0)
(0.00713281 -0.144329 0)
(-0.0123284 -0.188792 0)
(-0.0259694 -0.272989 0)
(-0.0566346 -0.399556 0)
(-0.00653801 -0.391815 0)
(0.00778458 0.0620663 0)
(0.0243905 0.155193 0)
(0.0385845 0.203207 0)
(0.0506278 0.223199 0)
(0.0619199 0.222309 0)
(0.0720898 0.203909 0)
(0.079993 0.173636 0)
(0.0850455 0.137873 0)
(0.0872132 0.101269 0)
(0.0867774 0.0659962 0)
(0.0841067 0.0323469 0)
(0.079172 -0.000381925 0)
(0.071827 -0.0326633 0)
(0.0622051 -0.0649641 0)
(0.0493103 -0.0970392 0)
(0.0347091 -0.12898 0)
(0.0107018 -0.168563 0)
(-0.00282591 -0.249759 0)
(-0.0462912 -0.395864 0)
(0.00211143 -0.427153 0)
(0.00538846 0.0475206 0)
(0.0240727 0.136349 0)
(0.0436361 0.186065 0)
(0.0613915 0.206824 0)
(0.0784406 0.207234 0)
(0.094293 0.19163 0)
(0.107455 0.165074 0)
(0.11695 0.133037 0)
(0.122527 0.099694 0)
(0.124388 0.0672213 0)
(0.122816 0.0362565 0)
(0.118012 0.00636395 0)
(0.109499 -0.0227556 0)
(0.0978891 -0.0517364 0)
(0.0813706 -0.0805762 0)
(0.0627352 -0.109981 0)
(0.0336255 -0.145726 0)
(0.0201428 -0.224051 0)
(-0.0365236 -0.38903 0)
(0.0124651 -0.456889 0)
(0.00174825 0.0355477 0)
(0.0187964 0.11525 0)
(0.042535 0.165164 0)
(0.0660821 0.18669 0)
(0.0894768 0.188433 0)
(0.111775 0.175721 0)
(0.131178 0.153333 0)
(0.14622 0.125788 0)
(0.156269 0.0966506 0)
(0.16142 0.0679452 0)
(0.161628 0.0405532 0)
(0.157601 0.0143797 0)
(0.148134 -0.0108248 0)
(0.134728 -0.035529 0)
(0.114353 -0.0600679 0)
(0.091746 -0.0860973 0)
(0.0574401 -0.119111 0)
(0.0425179 -0.196041 0)
(-0.025502 -0.379567 0)
(0.0270513 -0.480082 0)
(-0.00312712 0.0316607 0)
(0.00635786 0.0970126 0)
(0.0290355 0.137177 0)
(0.0577545 0.155581 0)
(0.0883707 0.157846 0)
(0.118491 0.148349 0)
(0.145554 0.131035 0)
(0.167667 0.109347 0)
(0.183638 0.0861645 0)
(0.19355 0.0631615 0)
(0.196727 0.0413261 0)
(0.194565 0.0206959 0)
(0.18498 0.0011801 0)
(0.170964 -0.0177823 0)
(0.147566 -0.0365567 0)
(0.122508 -0.0583778 0)
(0.083549 -0.0905693 0)
(0.0647308 -0.170294 0)
(-0.0074786 -0.364994 0)
(0.0505982 -0.488405 0)
(-0.0117028 0.0217329 0)
(-0.00796615 0.087698 0)
(0.0131734 0.117957 0)
(0.0459414 0.127954 0)
(0.0831737 0.12711 0)
(0.120435 0.119268 0)
(0.154531 0.106633 0)
(0.182972 0.0908803 0)
(0.204285 0.0741869 0)
(0.219006 0.0574995 0)
(0.225397 0.0419883 0)
(0.226583 0.0274942 0)
(0.218459 0.0145244 0)
(0.207523 0.00192541 0)
(0.184781 -0.0106196 0)
(0.163411 -0.0284207 0)
(0.12258 -0.060307 0)
(0.101539 -0.140742 0)
(0.0343655 -0.324777 0)
(0.0911728 -0.454876 0)
(-0.104581 0.0847122 0)
(-0.0771696 0.0701144 0)
(-0.050675 0.0704113 0)
(-0.00230134 0.0727759 0)
(0.0469298 0.0724042 0)
(0.0958463 0.0685984 0)
(0.140149 0.0623182 0)
(0.180357 0.0540914 0)
(0.211478 0.0455844 0)
(0.239011 0.0369041 0)
(0.255134 0.0291951 0)
(0.270698 0.0219661 0)
(0.272496 0.0160506 0)
(0.27788 0.0102843 0)
(0.264371 0.00415537 0)
(0.259393 -0.0067833 0)
(0.222945 -0.0323142 0)
(0.212956 -0.0935232 0)
(0.148528 -0.229428 0)
(0.170301 -0.341411 0)
(0.13092 0.104662 0)
(0.160392 0.0772509 0)
(0.215194 0.0552756 0)
(0.273075 0.0430644 0)
(0.323841 0.036692 0)
(0.373697 0.0322681 0)
(0.415856 0.0290429 0)
(0.459001 0.0256591 0)
(0.490721 0.0230572 0)
(0.525059 0.0199399 0)
(0.544327 0.0179086 0)
(0.570285 0.0150484 0)
(0.577168 0.0137486 0)
(0.596443 0.0110026 0)
(0.589381 0.0101654 0)
(0.599436 0.00572294 0)
(0.565501 0.000803687 0)
(0.547318 -0.0177436 0)
(0.436821 -0.0501414 0)
(0.337467 -0.101313 0)
)
;

boundaryField
{
    movingWall
    {
        type            fixedValue;
        value           uniform (1 0 0);
    }
    fixedWalls
    {
        type            noSlip;
    }
    frontAndBack
    {
        type            empty;
    }
}


// ************************************************************************* //
