/*--------------------------------*- C++ -*----------------------------------*\
| =========                 |                                                 |
| \\      /  F ield         | OpenFOAM: The Open Source CFD Toolbox           |
|  \\    /   O peration     | Version:  2212                                  |
|   \\  /    A nd           | Website:  www.openfoam.com                      |
|    \\/     M anipulation  |                                                 |
\*---------------------------------------------------------------------------*/
FoamFile
{
    version     2.0;
    format      ascii;
    arch        "LSB;label=32;scalar=64";
    class       surfaceScalarField;
    location    "1.92";
    object      phi;
}
// * * * * * * * * * * * * * * * * * * * * * * * * * * * * * * * * * * * * * //

dimensions      [0 3 -1 0 0 0 0];

oriented        oriented;

internalField   nonuniform List<scalar> 
760
(
8.97804e-08
-8.97831e-08
1.50402e-07
-6.06212e-08
1.3351e-07
1.68918e-08
1.8061e-08
1.1545e-07
-2.2959e-07
2.47652e-07
-6.56679e-07
4.27089e-07
-1.29027e-06
6.33589e-07
-2.08563e-06
7.95361e-07
-2.90497e-06
8.19344e-07
-3.56037e-06
6.55394e-07
-3.88877e-06
3.28408e-07
-3.79608e-06
-9.26942e-08
-3.20034e-06
-5.95735e-07
-2.19197e-06
-1.00838e-06
-9.67131e-07
-1.22484e-06
1.50179e-07
-1.11731e-06
8.33169e-07
-6.8299e-07
8.42046e-07
-8.87767e-09
3.86667e-07
4.55379e-07
3.86667e-07
2.38232e-08
-1.13606e-07
-9.58213e-08
5.90237e-08
-4.25944e-07
3.47015e-07
-1.04007e-06
7.29572e-07
-1.99231e-06
1.1999e-06
-3.25907e-06
1.69385e-06
-4.69138e-06
2.06589e-06
-6.05089e-06
2.15487e-06
-7.11502e-06
1.88348e-06
-7.74305e-06
1.28343e-06
-7.86862e-06
4.53979e-07
-7.448e-06
-5.1332e-07
-6.50717e-06
-1.53656e-06
-5.074e-06
-2.44155e-06
-3.28019e-06
-3.01865e-06
-1.40271e-06
-2.99479e-06
7.70722e-08
-2.16277e-06
7.13174e-07
-6.4498e-07
4.5231e-07
7.16243e-07
8.38977e-07
-1.72581e-07
5.89752e-08
-6.30524e-07
5.16967e-07
-1.41866e-06
1.13515e-06
-2.59362e-06
1.90454e-06
-4.12158e-06
2.72786e-06
-5.82591e-06
3.39818e-06
-7.45285e-06
3.69283e-06
-8.80053e-06
3.50255e-06
-9.7704e-06
2.85335e-06
-1.03264e-05
1.83942e-06
-1.04276e-05
5.55205e-07
-1.00729e-05
-8.68015e-07
-9.26677e-06
-2.34272e-06
-7.96404e-06
-3.74428e-06
-6.1494e-06
-4.83329e-06
-3.92703e-06
-5.21716e-06
-1.66352e-06
-4.42628e-06
-7.57516e-08
-2.23275e-06
2.74442e-07
3.6605e-07
1.11342e-06
-4.23693e-07
4.82668e-07
-1.27717e-06
1.37045e-06
-2.49902e-06
2.357e-06
-4.075e-06
3.48051e-06
-5.86563e-06
4.51849e-06
-7.63561e-06
5.16817e-06
-9.17326e-06
5.23048e-06
-1.03738e-05
4.70313e-06
-1.1224e-05
3.70355e-06
-1.17379e-05
2.35323e-06
-1.19e-05
7.17392e-07
-1.17316e-05
-1.03643e-06
-1.12241e-05
-2.85029e-06
-1.02828e-05
-4.68556e-06
-8.79259e-06
-6.32348e-06
-6.64623e-06
-7.36353e-06
-3.91851e-06
-7.154e-06
-1.21057e-06
-4.94069e-06
1.17008e-07
-9.61524e-07
1.23043e-06
-6.66652e-07
1.14932e-06
-1.84081e-06
2.5446e-06
-3.3399e-06
3.85609e-06
-5.07145e-06
5.21206e-06
-6.84185e-06
6.28889e-06
-8.43432e-06
6.76064e-06
-9.71711e-06
6.51327e-06
-1.06622e-05
5.64819e-06
-1.12991e-05
4.34046e-06
-1.16794e-05
2.73351e-06
-1.18641e-05
9.02155e-07
-1.18689e-05
-1.03162e-06
-1.16844e-05
-3.03486e-06
-1.12309e-05
-5.13898e-06
-1.03373e-05
-7.21708e-06
-8.74173e-06
-8.95913e-06
-6.20058e-06
-9.69515e-06
-2.86758e-06
-8.27369e-06
-2.24419e-07
-3.60469e-06
1.00601e-06
-8.17479e-07
1.9668e-06
-2.15695e-06
3.88408e-06
-3.72628e-06
5.42542e-06
-5.38006e-06
6.86583e-06
-6.92587e-06
7.83471e-06
-8.2013e-06
8.03606e-06
-9.13947e-06
7.45145e-06
-9.75971e-06
6.26843e-06
-1.01249e-05
4.70564e-06
-1.03185e-05
2.92712e-06
-1.04445e-05
1.02816e-06
-1.0538e-05
-9.38136e-07
-1.05889e-05
-2.98391e-06
-1.05741e-05
-5.15386e-06
-1.03447e-05
-7.44646e-06
-9.58328e-06
-9.72052e-06
-7.83351e-06
-1.14449e-05
-4.75945e-06
-1.13477e-05
-1.02062e-06
-7.34351e-06
-1.46162e-08
-8.32033e-07
2.79883e-06
-2.15671e-06
5.20875e-06
-3.61271e-06
6.88142e-06
-5.03397e-06
8.28709e-06
-6.26302e-06
9.06376e-06
-7.1924e-06
8.96544e-06
-7.80236e-06
8.06142e-06
-8.14202e-06
6.60808e-06
-8.29523e-06
4.85885e-06
-8.35472e-06
2.98661e-06
-8.40722e-06
1.08066e-06
-8.49877e-06
-8.46582e-07
-8.64154e-06
-2.84114e-06
-8.85367e-06
-4.94173e-06
-9.0767e-06
-7.22342e-06
-9.06678e-06
-9.73045e-06
-8.30807e-06
-1.22036e-05
-6.10391e-06
-1.35519e-05
-2.1825e-06
-1.12649e-05
-2.19711e-06
-7.08793e-07
3.50762e-06
-1.86491e-06
6.36487e-06
-3.08697e-06
8.10348e-06
-4.20811e-06
9.40823e-06
-5.11544e-06
9.97109e-06
-5.74971e-06
9.59971e-06
-6.12281e-06
8.43452e-06
-6.29855e-06
6.78382e-06
-6.36263e-06
4.92293e-06
-6.39409e-06
3.01806e-06
-6.43985e-06
1.12643e-06
-6.52019e-06
-7.66241e-07
-6.66005e-06
-2.70128e-06
-6.90215e-06
-4.69964e-06
-7.27103e-06
-6.85454e-06
-7.66811e-06
-9.33337e-06
-7.65609e-06
-1.22157e-05
-6.41979e-06
-1.47882e-05
-3.2951e-06
-1.43896e-05
-5.49222e-06
-4.81063e-07
3.98869e-06
-1.36606e-06
7.24987e-06
-2.29397e-06
9.03139e-06
-3.10481e-06
1.02191e-05
-3.72657e-06
1.05928e-05
-4.13836e-06
1.00115e-05
-4.36968e-06
8.66584e-06
-4.48339e-06
6.89754e-06
-4.55058e-06
4.99011e-06
-4.62087e-06
3.08836e-06
-4.70752e-06
1.21308e-06
-4.80557e-06
-6.68193e-07
-4.931e-06
-2.57585e-06
-5.12359e-06
-4.50705e-06
-5.46212e-06
-6.516e-06
-5.96879e-06
-8.8267e-06
-6.39125e-06
-1.17932e-05
-5.95177e-06
-1.52277e-05
-3.75198e-06
-1.65894e-05
-9.2442e-06
-1.90721e-07
4.17941e-06
-7.48681e-07
7.80783e-06
-1.36074e-06
9.64344e-06
-1.87563e-06
1.0734e-05
-2.25198e-06
1.09692e-05
-2.49632e-06
1.02558e-05
-2.64348e-06
8.813e-06
-2.74258e-06
6.99664e-06
-2.83945e-06
5.08697e-06
-2.95804e-06
3.20695e-06
-3.09561e-06
1.35065e-06
-3.23707e-06
-5.26731e-07
-3.38152e-06
-2.4314e-06
-3.54998e-06
-4.33859e-06
-3.82107e-06
-6.24491e-06
-4.30842e-06
-8.33935e-06
-4.93947e-06
-1.11622e-05
-5.05265e-06
-1.51145e-05
-3.48929e-06
-1.81528e-05
-1.27335e-05
1.06974e-07
4.07244e-06
-9.61657e-08
8.01097e-06
-3.9979e-07
9.94707e-06
-6.43237e-07
1.09774e-05
-8.01336e-07
1.11273e-05
-8.96032e-07
1.03505e-05
-9.64591e-07
8.88156e-06
-1.04221e-06
7.07426e-06
-1.14966e-06
5.19442e-06
-1.2913e-06
3.34859e-06
-1.46192e-06
1.52127e-06
-1.65233e-06
-3.36319e-07
-1.85268e-06
-2.23105e-06
-2.06624e-06
-4.12503e-06
-2.3388e-06
-5.97235e-06
-2.80376e-06
-7.87439e-06
-3.53057e-06
-1.04354e-05
-4.01834e-06
-1.46267e-05
-3.00951e-06
-1.91616e-05
-1.5743e-05
3.52043e-07
3.72039e-06
4.9413e-07
7.86889e-06
5.20275e-07
9.92093e-06
5.56832e-07
1.09409e-05
6.19186e-07
1.10649e-05
6.76474e-07
1.02933e-05
6.96339e-07
8.86169e-06
6.63407e-07
7.10719e-06
5.76973e-07
5.28086e-06
4.42986e-07
3.48258e-06
2.64724e-07
1.69953e-06
3.99926e-08
-1.11587e-07
-2.30519e-07
-1.96054e-06
-5.44925e-07
-3.81063e-06
-9.1828e-07
-5.59899e-06
-1.42297e-06
-7.3697e-06
-2.23185e-06
-9.62647e-06
-3.00507e-06
-1.38535e-05
-2.4907e-06
-1.9676e-05
-1.82337e-05
5.29372e-07
3.19102e-06
9.8736e-07
7.4109e-06
1.31737e-06
9.59091e-06
1.63638e-06
1.06218e-05
1.94401e-06
1.07573e-05
2.18689e-06
1.00504e-05
2.33338e-06
8.71519e-06
2.38369e-06
7.05689e-06
2.3531e-06
5.31145e-06
2.25308e-06
3.58259e-06
2.08054e-06
1.87208e-06
1.81665e-06
1.52303e-07
1.46971e-06
-1.6136e-06
1.03702e-06
-3.37794e-06
5.19636e-07
-5.08161e-06
-1.51841e-07
-6.69822e-06
-1.04764e-06
-8.73067e-06
-2.03253e-06
-1.28686e-05
-1.98262e-06
-1.97259e-05
-2.02163e-05
6.0257e-07
2.58845e-06
1.3166e-06
6.69687e-06
1.93427e-06
8.97324e-06
2.53456e-06
1.00216e-05
3.10553e-06
1.01863e-05
3.58069e-06
9.57522e-06
3.91475e-06
8.38113e-06
4.1044e-06
6.86724e-06
4.16913e-06
5.24672e-06
4.12513e-06
3.62659e-06
3.96854e-06
2.02866e-06
3.6835e-06
4.37352e-07
3.25389e-06
-1.184e-06
2.68389e-06
-2.80795e-06
1.97907e-06
-4.37679e-06
1.15633e-06
-5.87548e-06
1.03205e-07
-7.67755e-06
-1.1218e-06
-1.16436e-05
-1.50748e-06
-1.93402e-05
-2.17238e-05
5.46928e-07
2.04152e-06
1.3922e-06
5.8516e-06
2.2445e-06
8.12093e-06
3.12274e-06
9.14332e-06
3.98802e-06
9.32106e-06
4.75114e-06
8.81209e-06
5.34211e-06
7.79017e-06
5.74027e-06
6.46907e-06
5.95697e-06
5.03002e-06
6.00808e-06
3.57548e-06
5.89308e-06
2.14367e-06
5.59405e-06
7.3638e-07
5.08547e-06
-6.75413e-07
4.37777e-06
-2.10025e-06
3.47222e-06
-3.47123e-06
2.41437e-06
-4.81763e-06
1.15201e-06
-6.4152e-06
-3.12268e-07
-1.01793e-05
-1.03028e-06
-1.86222e-05
-2.27541e-05
3.74912e-07
1.66661e-06
1.20726e-06
5.01925e-06
2.26721e-06
7.06099e-06
3.42772e-06
7.98281e-06
4.60634e-06
8.14244e-06
5.68857e-06
7.72986e-06
6.57849e-06
6.90025e-06
7.23331e-06
5.81425e-06
7.64791e-06
4.61542e-06
7.83058e-06
3.39281e-06
7.78255e-06
2.1917e-06
7.49697e-06
1.02196e-06
6.91693e-06
-9.53773e-08
6.07898e-06
-1.2623e-06
4.97194e-06
-2.36419e-06
3.66492e-06
-3.51061e-06
2.21555e-06
-4.96583e-06
6.5689e-07
-8.62066e-06
-2.95118e-07
-1.76702e-05
-2.30492e-05
2.52816e-08
1.64133e-06
5.7577e-07
4.46876e-06
1.71523e-06
5.92153e-06
3.15421e-06
6.54382e-06
4.69016e-06
6.60649e-06
6.14421e-06
6.27581e-06
7.38816e-06
5.6563e-06
8.36106e-06
4.84135e-06
9.03417e-06
3.94231e-06
9.40635e-06
3.02063e-06
9.46769e-06
2.13036e-06
9.21814e-06
1.27152e-06
8.65261e-06
4.70154e-07
7.72233e-06
-3.32019e-07
6.48493e-06
-1.1268e-06
4.99668e-06
-2.02236e-06
3.43605e-06
-3.4052e-06
1.93399e-06
-7.1186e-06
5.30186e-07
-1.62664e-05
-2.2519e-05
-4.47473e-07
2.0888e-06
-2.7584e-08
4.04887e-06
1.08657e-06
4.80738e-06
2.72088e-06
4.90951e-06
4.5488e-06
4.77857e-06
6.31278e-06
4.51183e-06
7.85558e-06
4.1135e-06
9.10623e-06
3.59069e-06
1.00172e-05
3.03133e-06
1.05881e-05
2.44974e-06
1.08078e-05
1.9107e-06
1.06915e-05
1.38778e-06
1.02338e-05
9.27853e-07
9.44788e-06
4.53897e-07
8.36648e-06
-4.53964e-08
7.03653e-06
-6.92404e-07
5.67738e-06
-2.04606e-06
4.11967e-06
-5.56089e-06
1.91251e-06
-1.40592e-05
-2.06065e-05
-4.10754e-06
6.19634e-06
-3.67559e-06
3.61692e-06
-1.60134e-06
2.73313e-06
7.97493e-07
2.51067e-06
3.17462e-06
2.40145e-06
5.43663e-06
2.24982e-06
7.48651e-06
2.06362e-06
9.25347e-06
1.82373e-06
1.06957e-05
1.58908e-06
1.18172e-05
1.32831e-06
1.26176e-05
1.11029e-06
1.31289e-05
8.76466e-07
1.33463e-05
7.10388e-07
1.32968e-05
5.03416e-07
1.29289e-05
3.22559e-07
1.22826e-05
-4.6145e-08
1.14123e-05
-1.17578e-06
9.8697e-06
-4.01825e-06
5.53658e-06
-9.7261e-06
-1.50699e-05
6.19634e-06
9.81326e-06
1.25464e-05
1.50571e-05
1.74585e-05
1.97083e-05
2.1772e-05
2.35957e-05
2.51848e-05
2.65131e-05
2.76234e-05
2.84998e-05
2.92102e-05
2.97136e-05
3.00362e-05
2.999e-05
2.88143e-05
2.4796e-05
1.50699e-05
)
;

boundaryField
{
    movingWall
    {
        type            calculated;
        value           uniform 0;
    }
    fixedWalls
    {
        type            calculated;
        value           uniform 0;
    }
    frontAndBack
    {
        type            empty;
        value           nonuniform List<scalar> 0();
    }
}


// ************************************************************************* //
