/*--------------------------------*- C++ -*----------------------------------*\
| =========                 |                                                 |
| \\      /  F ield         | OpenFOAM: The Open Source CFD Toolbox           |
|  \\    /   O peration     | Version:  2212                                  |
|   \\  /    A nd           | Website:  www.openfoam.com                      |
|    \\/     M anipulation  |                                                 |
\*---------------------------------------------------------------------------*/
FoamFile
{
    version     2.0;
    format      ascii;
    arch        "LSB;label=32;scalar=64";
    class       volVectorField;
    location    "2.215";
    object      U;
}
// * * * * * * * * * * * * * * * * * * * * * * * * * * * * * * * * * * * * * //

dimensions      [0 1 -1 0 0 0 0];

internalField   nonuniform List<vector> 
400
(
(0.00125652 -0.00131386 0)
(0.00347117 -0.00141468 0)
(0.00448448 -0.000947607 0)
(0.00342727 -0.000411256 0)
(-0.000305281 0.000311227 0)
(-0.00767294 0.00165717 0)
(-0.0195868 0.00406428 0)
(-0.035963 0.00721682 0)
(-0.0546721 0.00953613 0)
(-0.0714239 0.00928013 0)
(-0.0818381 0.00628494 0)
(-0.0832866 0.00176669 0)
(-0.0747278 -0.00304317 0)
(-0.0566833 -0.00738689 0)
(-0.0326155 -0.00983624 0)
(-0.00666451 -0.00896703 0)
(0.0137648 -0.00459706 0)
(0.0213196 0.00226593 0)
(0.014442 0.00571169 0)
(0.00395209 0.00422738 0)
(0.001004 -0.00351037 0)
(0.00118173 -0.00241693 0)
(-0.00281877 0.00115546 0)
(-0.01257 0.005917 0)
(-0.02983 0.0122449 0)
(-0.0552702 0.0203407 0)
(-0.0865874 0.0284489 0)
(-0.118245 0.0328085 0)
(-0.144486 0.0307067 0)
(-0.161632 0.0223319 0)
(-0.167907 0.00959227 0)
(-0.162999 -0.00524047 0)
(-0.147435 -0.0203351 0)
(-0.121784 -0.0333548 0)
(-0.0882649 -0.0407773 0)
(-0.049597 -0.0386167 0)
(-0.0115087 -0.0247639 0)
(0.0147032 -0.0020424 0)
(0.0161187 0.0143045 0)
(0.00515595 0.0133904 0)
(-0.000826541 -0.00314234 0)
(-0.00625302 0.00287719 0)
(-0.0191474 0.0134537 0)
(-0.0406321 0.0271235 0)
(-0.0714312 0.0426037 0)
(-0.108528 0.056328 0)
(-0.145758 0.0634686 0)
(-0.177594 0.0611758 0)
(-0.201235 0.0498413 0)
(-0.215629 0.0315023 0)
(-0.220491 0.00842973 0)
(-0.216246 -0.0172712 0)
(-0.203199 -0.0434547 0)
(-0.180958 -0.0666641 0)
(-0.149307 -0.0820088 0)
(-0.108376 -0.0828495 0)
(-0.0602421 -0.0628702 0)
(-0.0130717 -0.0224231 0)
(0.00878836 0.0154468 0)
(0.00408089 0.0215127 0)
(-0.00322251 0.00308958 0)
(-0.0158044 0.0176382 0)
(-0.038613 0.0368326 0)
(-0.069937 0.0591225 0)
(-0.108268 0.0800206 0)
(-0.148135 0.0934656 0)
(-0.183438 0.0952407 0)
(-0.211199 0.0851831 0)
(-0.231006 0.0657342 0)
(-0.2431 0.0394767 0)
(-0.248063 0.00840873 0)
(-0.246641 -0.0259861 0)
(-0.23888 -0.0615605 0)
(-0.223806 -0.0953222 0)
(-0.199581 -0.122075 0)
(-0.163677 -0.133432 0)
(-0.114031 -0.11801 0)
(-0.0529628 -0.0672037 0)
(-0.00101913 0.0017622 0)
(0.0046171 0.0259491 0)
(-0.00575714 0.0157849 0)
(-0.0247789 0.0409342 0)
(-0.0548045 0.0678083 0)
(-0.0911218 0.0956467 0)
(-0.130521 0.117549 0)
(-0.166974 0.127135 0)
(-0.196204 0.122278 0)
(-0.217452 0.105111 0)
(-0.231512 0.0791145 0)
(-0.239718 0.0471137 0)
(-0.24366 0.0108774 0)
(-0.244388 -0.0286301 0)
(-0.241895 -0.0701521 0)
(-0.235481 -0.112175 0)
(-0.222606 -0.150895 0)
(-0.198787 -0.178181 0)
(-0.158419 -0.179444 0)
(-0.0973745 -0.135057 0)
(-0.0205806 -0.0375049 0)
(0.00688638 0.0250147 0)
(-0.00719507 0.0327915 0)
(-0.0299724 0.0691728 0)
(-0.0630503 0.101503 0)
(-0.0992727 0.131527 0)
(-0.134836 0.151293 0)
(-0.16441 0.155301 0)
(-0.185659 0.143599 0)
(-0.199198 0.120034 0)
(-0.206609 0.0888341 0)
(-0.210108 0.0531701 0)
(-0.211831 0.0148399 0)
(-0.213003 -0.0255346 0)
(-0.213968 -0.0681472 0)
(-0.214727 -0.113328 0)
(-0.213231 -0.159902 0)
(-0.204419 -0.202519 0)
(-0.180413 -0.227299 0)
(-0.133004 -0.207886 0)
(-0.0583804 -0.112215 0)
(0.00530679 0.0130336 0)
(-0.00697341 0.0514922 0)
(-0.0300614 0.0984498 0)
(-0.0620995 0.133785 0)
(-0.0944933 0.163265 0)
(-0.123671 0.179008 0)
(-0.145469 0.176762 0)
(-0.159143 0.158456 0)
(-0.166129 0.129257 0)
(-0.168524 0.0940462 0)
(-0.16881 0.0562388 0)
(-0.168863 0.0175252 0)
(-0.169615 -0.0217804 0)
(-0.171692 -0.0626175 0)
(-0.175736 -0.106416 0)
(-0.18108 -0.154398 0)
(-0.183987 -0.20549 0)
(-0.176448 -0.250635 0)
(-0.148545 -0.263823 0)
(-0.0941599 -0.196306 0)
(-0.00799481 -0.0143712 0)
(-0.00516945 0.0689092 0)
(-0.0253881 0.125491 0)
(-0.0532806 0.162074 0)
(-0.0798006 0.189334 0)
(-0.101964 0.200267 0)
(-0.116871 0.191855 0)
(-0.124871 0.167617 0)
(-0.127814 0.13378 0)
(-0.127979 0.0956988 0)
(-0.127557 0.0567191 0)
(-0.127634 0.0181188 0)
(-0.1285 -0.0201795 0)
(-0.130627 -0.0591052 0)
(-0.134907 -0.100057 0)
(-0.142007 -0.145287 0)
(-0.150533 -0.197463 0)
(-0.154202 -0.254512 0)
(-0.142509 -0.296452 0)
(-0.10824 -0.266192 0)
(-0.0289165 -0.0708952 0)
(-0.00231367 0.0824049 0)
(-0.0173958 0.147736 0)
(-0.0392162 0.184649 0)
(-0.0590701 0.208914 0)
(-0.074624 0.215173 0)
(-0.0840982 0.201559 0)
(-0.0884613 0.172753 0)
(-0.0895911 0.135701 0)
(-0.0895584 0.0959966 0)
(-0.0899071 0.056697 0)
(-0.0909393 0.0185029 0)
(-0.0924986 -0.0191231 0)
(-0.0947456 -0.0569256 0)
(-0.0983594 -0.0956716 0)
(-0.104666 -0.1373 0)
(-0.114494 -0.186383 0)
(-0.124375 -0.247611 0)
(-0.123586 -0.311379 0)
(-0.104618 -0.322409 0)
(-0.0360214 -0.154379 0)
(0.000974587 0.0900621 0)
(-0.00758713 0.163565 0)
(-0.0222446 0.200926 0)
(-0.0353177 0.222521 0)
(-0.0449411 0.225108 0)
(-0.0502604 0.207741 0)
(-0.0524161 0.175882 0)
(-0.0529606 0.136961 0)
(-0.0534691 0.0966541 0)
(-0.0548361 0.057611 0)
(-0.0569225 0.0199336 0)
(-0.0594206 -0.0172715 0)
(-0.0622928 -0.0546059 0)
(-0.065834 -0.0922373 0)
(-0.0711928 -0.131052 0)
(-0.0802416 -0.175539 0)
(-0.0929404 -0.234965 0)
(-0.0989991 -0.311829 0)
(-0.0935124 -0.35983 0)
(-0.0304448 -0.232209 0)
(0.00415046 0.0909607 0)
(0.00253575 0.171936 0)
(-0.00462113 0.210503 0)
(-0.0110955 0.230044 0)
(-0.0153743 0.230048 0)
(-0.0171837 0.210534 0)
(-0.0176302 0.177347 0)
(-0.0177832 0.137993 0)
(-0.0186241 0.0979634 0)
(-0.0205726 0.0595493 0)
(-0.0233346 0.0225197 0)
(-0.0266585 -0.0141561 0)
(-0.0305501 -0.0510883 0)
(-0.0350024 -0.0881923 0)
(-0.0406774 -0.125387 0)
(-0.0491921 -0.165868 0)
(-0.0635092 -0.220888 0)
(-0.0736376 -0.304684 0)
(-0.0803933 -0.383803 0)
(-0.0228116 -0.295816 0)
(0.00670525 0.0855191 0)
(0.0119555 0.172668 0)
(0.0122082 0.213606 0)
(0.0121045 0.232386 0)
(0.0129828 0.231282 0)
(0.0146627 0.211194 0)
(0.0161329 0.178047 0)
(0.0167603 0.139187 0)
(0.0161132 0.0998592 0)
(0.0141222 0.0621929 0)
(0.0110994 0.0259565 0)
(0.00715224 -0.00987018 0)
(0.00212707 -0.0459601 0)
(-0.00385999 -0.082206 0)
(-0.0111516 -0.118202 0)
(-0.0202814 -0.155467 0)
(-0.0366721 -0.204886 0)
(-0.0493775 -0.290545 0)
(-0.0679979 -0.395804 0)
(-0.0146738 -0.348578 0)
(0.00795835 0.0749165 0)
(0.0193539 0.165921 0)
(0.0265932 0.209778 0)
(0.0324457 0.228571 0)
(0.0383584 0.227371 0)
(0.0439901 0.208086 0)
(0.0482716 0.176363 0)
(0.0506875 0.139067 0)
(0.0511081 0.101148 0)
(0.049699 0.0647094 0)
(0.0468042 0.0297054 0)
(0.0423484 -0.0048176 0)
(0.0362839 -0.0394385 0)
(0.0285536 -0.0742014 0)
(0.018599 -0.108689 0)
(0.00732803 -0.143364 0)
(-0.012263 -0.187744 0)
(-0.026082 -0.271893 0)
(-0.0566883 -0.398427 0)
(-0.006582 -0.390787 0)
(0.007433 0.0611566 0)
(0.0235021 0.152342 0)
(0.0374003 0.199645 0)
(0.0492781 0.219767 0)
(0.0605184 0.21967 0)
(0.0707799 0.202379 0)
(0.0788857 0.173162 0)
(0.0841934 0.13823 0)
(0.0866232 0.102229 0)
(0.0864284 0.0673709 0)
(0.0839684 0.0339568 0)
(0.0792237 0.00128205 0)
(0.0720453 -0.031089 0)
(0.0624605 -0.0635956 0)
(0.0495292 -0.095886 0)
(0.0348322 -0.127905 0)
(0.0106952 -0.167403 0)
(-0.00299511 -0.248602 0)
(-0.0463853 -0.394757 0)
(0.0020518 -0.426182 0)
(0.00514545 0.0471902 0)
(0.0231245 0.134089 0)
(0.042199 0.182859 0)
(0.0596649 0.203556 0)
(0.0765703 0.204586 0)
(0.0924292 0.189941 0)
(0.105726 0.164352 0)
(0.115437 0.133113 0)
(0.121266 0.100372 0)
(0.12339 0.0683287 0)
(0.122077 0.0376309 0)
(0.117536 0.00787439 0)
(0.109229 -0.0212842 0)
(0.0977571 -0.0504074 0)
(0.0813118 -0.0794002 0)
(0.0626561 -0.108845 0)
(0.0334599 -0.144469 0)
(0.0199073 -0.222817 0)
(-0.0366702 -0.387945 0)
(0.0123766 -0.456019 0)
(0.00165281 0.0356921 0)
(0.0179693 0.113747 0)
(0.0410001 0.16254 0)
(0.0640816 0.183781 0)
(0.0871839 0.185907 0)
(0.109345 0.173945 0)
(0.128764 0.152378 0)
(0.14394 0.125556 0)
(0.154203 0.096988 0)
(0.159616 0.0687074 0)
(0.160112 0.0415921 0)
(0.156398 0.0155751 0)
(0.147214 -0.00962281 0)
(0.134047 -0.0343812 0)
(0.11386 -0.058989 0)
(0.0913255 -0.0850046 0)
(0.0570138 -0.117874 0)
(0.0421786 -0.194863 0)
(-0.0257383 -0.378667 0)
(0.0269154 -0.479384 0)
(-0.00307617 0.0321603 0)
(0.00575177 0.0962435 0)
(0.0276324 0.135177 0)
(0.055752 0.153174 0)
(0.0859183 0.155639 0)
(0.115731 0.146695 0)
(0.142649 0.130039 0)
(0.164769 0.108965 0)
(0.180868 0.0862816 0)
(0.190989 0.063659 0)
(0.194448 0.0420813 0)
(0.192579 0.0215996 0)
(0.18334 0.00214246 0)
(0.169636 -0.0168355 0)
(0.146525 -0.0356402 0)
(0.121637 -0.05742 0)
(0.0828088 -0.089456 0)
(0.06426 -0.169211 0)
(-0.00779613 -0.364333 0)
(0.0504373 -0.487932 0)
(-0.0113279 0.0222657 0)
(-0.00805545 0.0876051 0)
(0.0121364 0.116894 0)
(0.0441298 0.126366 0)
(0.0806613 0.12547 0)
(0.117382 0.117904 0)
(0.151139 0.105689 0)
(0.179432 0.0903709 0)
(0.200783 0.0740583 0)
(0.215647 0.0576702 0)
(0.22232 0.0423826 0)
(0.223802 0.0280217 0)
(0.216077 0.0151486 0)
(0.205438 0.00256372 0)
(0.183098 -0.00993816 0)
(0.16203 -0.0276897 0)
(0.121495 -0.0594903 0)
(0.100841 -0.14009 0)
(0.0339833 -0.324535 0)
(0.0910293 -0.454673 0)
(-0.104347 0.0850831 0)
(-0.0770857 0.0702788 0)
(-0.0510495 0.0699267 0)
(-0.00334508 0.0719242 0)
(0.0451541 0.0714459 0)
(0.0934337 0.0677381 0)
(0.13728 0.0616642 0)
(0.177202 0.0536726 0)
(0.208254 0.0453894 0)
(0.235828 0.036886 0)
(0.25216 0.029321 0)
(0.267945 0.0221757 0)
(0.270104 0.016329 0)
(0.275762 0.0105842 0)
(0.262712 0.00450815 0)
(0.257955 -0.00644357 0)
(0.22181 -0.0319557 0)
(0.212234 -0.0932662 0)
(0.148229 -0.229354 0)
(0.170227 -0.341356 0)
(0.131073 0.104821 0)
(0.160738 0.0775771 0)
(0.215686 0.0556041 0)
(0.273459 0.0432924 0)
(0.323919 0.0368081 0)
(0.373342 0.0323066 0)
(0.415099 0.0290473 0)
(0.457901 0.0256561 0)
(0.489427 0.0230674 0)
(0.52366 0.0199627 0)
(0.542958 0.0179512 0)
(0.568986 0.0150989 0)
(0.576033 0.0138144 0)
(0.595454 0.0110689 0)
(0.588617 0.0102404 0)
(0.598837 0.00578181 0)
(0.565124 0.000871546 0)
(0.547156 -0.0176731 0)
(0.436844 -0.0500901 0)
(0.337509 -0.101282 0)
)
;

boundaryField
{
    movingWall
    {
        type            fixedValue;
        value           uniform (1 0 0);
    }
    fixedWalls
    {
        type            noSlip;
    }
    frontAndBack
    {
        type            empty;
    }
}


// ************************************************************************* //
