/*--------------------------------*- C++ -*----------------------------------*\
| =========                 |                                                 |
| \\      /  F ield         | OpenFOAM: The Open Source CFD Toolbox           |
|  \\    /   O peration     | Version:  2212                                  |
|   \\  /    A nd           | Website:  www.openfoam.com                      |
|    \\/     M anipulation  |                                                 |
\*---------------------------------------------------------------------------*/
FoamFile
{
    version     2.0;
    format      ascii;
    arch        "LSB;label=32;scalar=64";
    class       surfaceScalarField;
    location    "0.71";
    object      phi;
}
// * * * * * * * * * * * * * * * * * * * * * * * * * * * * * * * * * * * * * //

dimensions      [0 3 -1 0 0 0 0];

oriented        oriented;

internalField   nonuniform List<scalar> 
760
(
-3.97039e-08
3.97039e-08
-1.38127e-07
9.84234e-08
-2.6032e-07
1.22192e-07
-3.91692e-07
1.31372e-07
-5.30118e-07
1.38425e-07
-6.76884e-07
1.46767e-07
-8.32617e-07
1.55732e-07
-9.95037e-07
1.6242e-07
-1.15672e-06
1.61687e-07
-1.30253e-06
1.45809e-07
-1.40786e-06
1.05323e-07
-1.44037e-06
3.25134e-08
-1.36225e-06
-7.81197e-08
-1.15676e-06
-2.05486e-07
-8.39726e-07
-3.17038e-07
-4.74731e-07
-3.64995e-07
-1.57655e-07
-3.17076e-07
2.78885e-08
-1.85543e-07
6.11692e-08
-3.32807e-08
6.11695e-08
-1.17626e-07
1.5733e-07
-3.3803e-07
3.18827e-07
-6.00988e-07
3.85151e-07
-8.83738e-07
4.14122e-07
-1.17981e-06
4.34498e-07
-1.48721e-06
4.54164e-07
-1.8021e-06
4.70619e-07
-2.11492e-06
4.75242e-07
-2.40721e-06
4.53981e-07
-2.64904e-06
3.87638e-07
-2.79859e-06
2.54868e-07
-2.80808e-06
4.20028e-08
-2.62968e-06
-2.56517e-07
-2.23936e-06
-5.958e-07
-1.66937e-06
-8.87033e-07
-1.01863e-06
-1.01574e-06
-4.37155e-07
-8.98549e-07
-6.42422e-08
-5.58456e-07
4.7914e-08
-1.45436e-07
1.09084e-07
-1.65228e-07
3.22558e-07
-4.58173e-07
6.11771e-07
-8.01527e-07
7.28504e-07
-1.16832e-06
7.80919e-07
-1.55017e-06
8.16341e-07
-1.94313e-06
8.47123e-07
-2.34089e-06
8.68383e-07
-2.73084e-06
8.6519e-07
-3.09111e-06
8.14253e-07
-3.38821e-06
6.84743e-07
-3.57605e-06
4.42701e-07
-3.60116e-06
6.71141e-08
-3.40064e-06
-4.57037e-07
-2.93483e-06
-1.06161e-06
-2.2226e-06
-1.59926e-06
-1.37431e-06
-1.86403e-06
-5.86823e-07
-1.68604e-06
-7.26242e-08
-1.07266e-06
7.54414e-08
-2.93502e-07
1.84525e-07
-1.88399e-07
5.10957e-07
-5.19508e-07
9.4288e-07
-9.05366e-07
1.11436e-06
-1.31658e-06
1.19213e-06
-1.7448e-06
1.24457e-06
-2.18695e-06
1.28927e-06
-2.63826e-06
1.3197e-06
-3.08881e-06
1.31574e-06
-3.52096e-06
1.2464e-06
-3.90656e-06
1.07035e-06
-4.20239e-06
7.38532e-07
-4.34703e-06
2.11752e-07
-4.2574e-06
-5.46666e-07
-3.83666e-06
-1.48235e-06
-3.05302e-06
-2.3829e-06
-1.99801e-06
-2.91904e-06
-9.07454e-07
-2.77659e-06
-1.17551e-07
-1.86256e-06
1.24245e-07
-5.35297e-07
3.0877e-07
-1.95207e-07
7.06164e-07
-5.40615e-07
1.28829e-06
-9.44295e-07
1.51804e-06
-1.37621e-06
1.62405e-06
-1.82967e-06
1.69802e-06
-2.30505e-06
1.76465e-06
-2.80325e-06
1.8179e-06
-3.3229e-06
1.83538e-06
-3.85866e-06
1.78216e-06
-4.39866e-06
1.61035e-06
-4.91349e-06
1.25336e-06
-5.32997e-06
6.28232e-07
-5.53949e-06
-3.37143e-07
-5.33327e-06
-1.68858e-06
-4.59609e-06
-3.12008e-06
-3.35913e-06
-4.156e-06
-1.83404e-06
-4.30168e-06
-4.66621e-07
-3.22998e-06
1.34278e-07
-1.1362e-06
4.43048e-07
-1.90447e-07
8.96611e-07
-5.33194e-07
1.63104e-06
-9.37526e-07
1.92238e-06
-1.37415e-06
2.06067e-06
-1.83913e-06
2.163e-06
-2.33833e-06
2.26385e-06
-2.8819e-06
2.36147e-06
-3.4829e-06
2.43638e-06
-4.15729e-06
2.45656e-06
-4.92162e-06
2.37468e-06
-5.77251e-06
2.10425e-06
-6.62359e-06
1.47931e-06
-7.27125e-06
3.10515e-07
-7.42281e-06
-1.53702e-06
-6.8738e-06
-3.66909e-06
-5.59273e-06
-5.43706e-06
-3.65384e-06
-6.24058e-06
-1.45862e-06
-5.42519e-06
-4.04316e-08
-2.55438e-06
4.02616e-07
-1.76837e-07
1.07345e-06
-5.03803e-07
1.958e-06
-8.9503e-07
2.3136e-06
-1.32258e-06
2.48822e-06
-1.78546e-06
2.62588e-06
-2.29586e-06
2.77425e-06
-2.87523e-06
2.94084e-06
-3.55542e-06
3.11657e-06
-4.38007e-06
3.28121e-06
-5.39699e-06
3.3916e-06
-6.61685e-06
3.32411e-06
-7.91782e-06
2.78028e-06
-8.95806e-06
1.35076e-06
-9.41474e-06
-1.08034e-06
-9.14807e-06
-3.93577e-06
-8.09297e-06
-6.49216e-06
-6.0947e-06
-8.23884e-06
-3.26416e-06
-8.25574e-06
-5.83212e-07
-5.23533e-06
-1.80596e-07
-1.56057e-07
1.22951e-06
-4.56154e-07
2.2581e-06
-8.21581e-07
2.67903e-06
-1.22543e-06
2.89207e-06
-1.66866e-06
3.06911e-06
-2.16865e-06
3.27424e-06
-2.75701e-06
3.5292e-06
-3.48263e-06
3.84219e-06
-4.41095e-06
4.20953e-06
-5.59955e-06
4.5802e-06
-7.0257e-06
4.75025e-06
-8.49507e-06
4.24965e-06
-9.67242e-06
2.52811e-06
-1.01894e-05
-5.63372e-07
-1.02379e-05
-3.88727e-06
-9.6756e-06
-7.05445e-06
-8.21455e-06
-9.69989e-06
-5.49305e-06
-1.09772e-05
-1.73397e-06
-8.99441e-06
-1.91456e-06
-1.29644e-07
1.35915e-06
-3.9336e-07
2.52182e-06
-7.20702e-07
3.00637e-06
-1.08454e-06
3.25591e-06
-1.48531e-06
3.46989e-06
-1.94168e-06
3.73061e-06
-2.48869e-06
4.07621e-06
-3.17961e-06
4.53311e-06
-4.07828e-06
5.1082e-06
-5.217e-06
5.71893e-06
-6.5177e-06
6.05095e-06
-7.7576e-06
5.48955e-06
-8.70671e-06
3.47723e-06
-9.23116e-06
-3.89247e-08
-9.48384e-06
-3.63459e-06
-9.42042e-06
-7.11787e-06
-8.78949e-06
-1.03308e-05
-6.92826e-06
-1.28385e-05
-3.20966e-06
-1.2713e-05
-5.12422e-06
-9.97913e-08
1.45894e-06
-3.19971e-07
2.742e-06
-5.98282e-07
3.28468e-06
-9.056e-07
3.56323e-06
-1.23848e-06
3.80277e-06
-1.61102e-06
4.10314e-06
-2.05109e-06
4.51628e-06
-2.59803e-06
5.08006e-06
-3.28995e-06
5.80011e-06
-4.12489e-06
6.55387e-06
-5.01158e-06
6.93764e-06
-5.79109e-06
6.26905e-06
-6.36783e-06
4.05397e-06
-6.90712e-06
5.00362e-07
-7.22623e-06
-3.31548e-06
-7.4658e-06
-6.8783e-06
-7.52658e-06
-1.027e-05
-6.73827e-06
-1.36268e-05
-4.13069e-06
-1.53206e-05
-9.25491e-06
-6.98598e-08
1.5288e-06
-2.43348e-07
2.91548e-06
-4.65068e-07
3.5064e-06
-7.02323e-07
3.80048e-06
-9.45062e-07
4.04551e-06
-1.1979e-06
4.35598e-06
-1.47347e-06
4.79184e-06
-1.78699e-06
5.39358e-06
-2.14602e-06
6.15914e-06
-2.53735e-06
6.9452e-06
-2.92223e-06
7.32252e-06
-3.26764e-06
6.61446e-06
-3.60823e-06
4.39456e-06
-4.03542e-06
9.27554e-07
-4.46341e-06
-2.8875e-06
-4.92215e-06
-6.41955e-06
-5.44675e-06
-9.74544e-06
-5.50059e-06
-1.35729e-05
-3.84121e-06
-1.698e-05
-1.30961e-05
-4.47351e-08
1.57354e-06
-1.74386e-07
3.04513e-06
-3.37433e-07
3.66945e-06
-4.97167e-07
3.96021e-06
-6.36716e-07
4.18506e-06
-7.50309e-07
4.46957e-06
-8.33476e-07
4.87501e-06
-8.78676e-07
5.43878e-06
-8.68146e-07
6.14861e-06
-7.9959e-07
6.87664e-06
-7.14087e-07
7.23702e-06
-7.12777e-07
6.61315e-06
-8.58079e-07
4.53987e-06
-1.22618e-06
1.29566e-06
-1.78962e-06
-2.32406e-06
-2.47892e-06
-5.73026e-06
-3.36471e-06
-8.85965e-06
-4.03534e-06
-1.29023e-05
-3.09578e-06
-1.79195e-05
-1.61919e-05
-3.04951e-08
1.60403e-06
-1.26922e-07
3.14156e-06
-2.36681e-07
3.77921e-06
-3.19338e-07
4.04287e-06
-3.53909e-07
4.21963e-06
-3.28334e-07
4.444e-06
-2.22223e-07
4.7689e-06
-1.16228e-08
5.22818e-06
3.20624e-07
5.81637e-06
7.76612e-07
6.42065e-06
1.28556e-06
6.72807e-06
1.67493e-06
6.22378e-06
1.7432e-06
4.4716e-06
1.39932e-06
1.63954e-06
7.41308e-07
-1.66605e-06
-1.77391e-07
-4.81156e-06
-1.42007e-06
-7.61697e-06
-2.60431e-06
-1.17181e-05
-2.37588e-06
-1.8148e-05
-1.85678e-05
-3.60825e-08
1.64012e-06
-1.18738e-07
3.22422e-06
-1.85664e-07
3.84614e-06
-1.96766e-07
4.05397e-06
-1.3315e-07
4.15601e-06
2.0851e-08
4.29e-06
2.73822e-07
4.51593e-06
6.56387e-07
4.84561e-06
1.20781e-06
5.26495e-06
1.93836e-06
5.6901e-06
2.76644e-06
5.89998e-06
3.4697e-06
5.52053e-06
3.76747e-06
4.17383e-06
3.51903e-06
1.88799e-06
2.7464e-06
-8.93426e-07
1.64057e-06
-3.70573e-06
1.95568e-07
-6.17197e-06
-1.34205e-06
-1.01804e-05
-1.69403e-06
-1.7796e-05
-2.02618e-05
-7.27805e-08
1.7129e-06
-1.73253e-07
3.32469e-06
-2.16096e-07
3.88898e-06
-1.63394e-07
4.00127e-06
-1.1397e-08
4.00402e-06
2.41252e-07
4.03735e-06
6.10394e-07
4.14678e-06
1.12013e-06
4.33588e-06
1.79984e-06
4.58524e-06
2.65684e-06
4.8331e-06
3.62064e-06
4.93619e-06
4.49076e-06
4.6504e-06
4.97136e-06
3.69322e-06
4.87437e-06
1.98498e-06
4.12811e-06
-1.47163e-07
2.89803e-06
-2.47565e-06
1.27317e-06
-4.54711e-06
-4.62116e-07
-8.44516e-06
-1.16848e-06
-1.70896e-05
-2.14303e-05
-1.54284e-07
1.86718e-06
-3.0705e-07
3.47745e-06
-3.33756e-07
3.91569e-06
-2.23644e-07
3.89116e-06
5.31257e-09
3.77506e-06
3.43021e-07
3.69964e-06
7.96213e-07
3.69359e-06
1.38057e-06
3.75153e-06
2.11261e-06
3.8532e-06
2.99247e-06
3.95323e-06
3.96352e-06
3.96514e-06
4.87125e-06
3.74267e-06
5.44972e-06
3.11476e-06
5.46836e-06
1.96633e-06
4.87168e-06
4.49525e-07
3.65485e-06
-1.25883e-06
2.04992e-06
-2.94218e-06
2.96079e-07
-6.69131e-06
-5.52646e-07
-1.62409e-05
-2.19829e-05
-3.53458e-07
2.22064e-06
-6.77857e-07
3.80185e-06
-6.67383e-07
3.90521e-06
-4.34197e-07
3.65797e-06
-8.92664e-08
3.43013e-06
3.39741e-07
3.27063e-06
8.60615e-07
3.17272e-06
1.48933e-06
3.12281e-06
2.23393e-06
3.1086e-06
3.08982e-06
3.09734e-06
4.00571e-06
3.04924e-06
4.87258e-06
2.87581e-06
5.47771e-06
2.50963e-06
5.60327e-06
1.84077e-06
5.10009e-06
9.52703e-07
4.04742e-06
-2.06156e-07
2.6698e-06
-1.56455e-06
1.34264e-06
-5.36416e-06
2.35596e-07
-1.51339e-05
-2.17473e-05
-3.81115e-07
2.60175e-06
-7.83067e-07
4.20381e-06
-8.64774e-07
3.98692e-06
-6.96503e-07
3.4897e-06
-3.53676e-07
3.0873e-06
1.05286e-07
2.81167e-06
6.70751e-07
2.60725e-06
1.34504e-06
2.44852e-06
2.11476e-06
2.33889e-06
2.97225e-06
2.23985e-06
3.86032e-06
2.16118e-06
4.71045e-06
2.02567e-06
5.36902e-06
1.85106e-06
5.68128e-06
1.52852e-06
5.51408e-06
1.1199e-06
4.90369e-06
4.04235e-07
4.18101e-06
-8.41862e-07
3.24015e-06
-4.4233e-06
1.54326e-06
-1.3437e-05
-2.02041e-05
-3.92065e-06
6.5224e-06
-3.70477e-06
3.98793e-06
-2.43564e-06
2.71779e-06
-1.18235e-06
2.23641e-06
-2.92183e-08
1.93417e-06
1.09644e-06
1.68602e-06
2.206e-06
1.49769e-06
3.31715e-06
1.33736e-06
4.42269e-06
1.23334e-06
5.53147e-06
1.13107e-06
6.61597e-06
1.07668e-06
7.65091e-06
9.90728e-07
8.55603e-06
9.45942e-07
9.26382e-06
8.20727e-07
9.7127e-06
6.71013e-07
9.82422e-06
2.92715e-07
9.65174e-06
-6.69385e-07
8.93728e-06
-3.70885e-06
5.1721e-06
-9.67179e-06
-1.5032e-05
6.5224e-06
1.05103e-05
1.32281e-05
1.54645e-05
1.73987e-05
1.90847e-05
2.05824e-05
2.19198e-05
2.31531e-05
2.42842e-05
2.53609e-05
2.63516e-05
2.72975e-05
2.81183e-05
2.87893e-05
2.9082e-05
2.84126e-05
2.47038e-05
1.5032e-05
)
;

boundaryField
{
    movingWall
    {
        type            calculated;
        value           uniform 0;
    }
    fixedWalls
    {
        type            calculated;
        value           uniform 0;
    }
    frontAndBack
    {
        type            empty;
        value           nonuniform List<scalar> 0();
    }
}


// ************************************************************************* //
