/*--------------------------------*- C++ -*----------------------------------*\
| =========                 |                                                 |
| \\      /  F ield         | OpenFOAM: The Open Source CFD Toolbox           |
|  \\    /   O peration     | Version:  2212                                  |
|   \\  /    A nd           | Website:  www.openfoam.com                      |
|    \\/     M anipulation  |                                                 |
\*---------------------------------------------------------------------------*/
FoamFile
{
    version     2.0;
    format      ascii;
    arch        "LSB;label=32;scalar=64";
    class       volScalarField;
    location    "3.415";
    object      p;
}
// * * * * * * * * * * * * * * * * * * * * * * * * * * * * * * * * * * * * * //

dimensions      [0 2 -2 0 0 0 0];

internalField   nonuniform List<scalar> 
400
(
8.61574e-09
-0.00014872
-0.000523405
-0.00104881
-0.00169558
-0.00243877
-0.00311499
-0.00351904
-0.003484
-0.00285773
-0.00149036
0.000645473
0.00324483
0.00550055
0.00654912
0.00600167
0.00414761
0.00233502
0.00130443
0.00122906
0.000116847
-5.41654e-05
-0.000364729
-0.000745002
-0.00121716
-0.00184645
-0.00264116
-0.00345232
-0.00396984
-0.00382593
-0.00275198
-0.000762541
0.00172027
0.00398162
0.00517092
0.00484595
0.00327368
0.00157401
0.00079674
0.000876612
0.000524698
0.000262497
-7.04488e-05
-0.000542414
-0.00131009
-0.00250734
-0.00409597
-0.00580735
-0.00718504
-0.0077121
-0.00704836
-0.00527804
-0.00274543
-7.43482e-05
0.00191342
0.00257876
0.00190266
0.000718781
-0.000175418
-0.000184781
0.00111514
0.00071625
0.00018644
-0.000748747
-0.00237012
-0.00477727
-0.00774199
-0.010778
-0.0132924
-0.014732
-0.0147657
-0.0134304
-0.0109356
-0.00772615
-0.004492
-0.00197257
-0.00064172
-0.000480858
-0.00106212
-0.00169487
0.00150699
0.000919785
-3.49668e-05
-0.00186324
-0.00483669
-0.00887453
-0.0134676
-0.0179076
-0.0215477
-0.0239274
-0.0247901
-0.0240176
-0.021726
-0.0181927
-0.0138446
-0.00928055
-0.00528988
-0.00270093
-0.00197317
-0.00377441
0.00119446
0.000379413
-0.00119048
-0.00417302
-0.00870386
-0.0143898
-0.0204004
-0.0258871
-0.0302436
-0.0331556
-0.0344981
-0.0341746
-0.0322606
-0.0288936
-0.0242042
-0.0184033
-0.012083
-0.00664167
-0.00415545
-0.00625286
-0.000136705
-0.00119159
-0.00343835
-0.00756136
-0.013474
-0.020424
-0.0273337
-0.0333245
-0.0379031
-0.0409115
-0.0423623
-0.0422797
-0.0407272
-0.0377661
-0.0333632
-0.027391
-0.0199582
-0.0122942
-0.00756298
-0.00750407
-0.00248944
-0.00372832
-0.00655245
-0.0115533
-0.0184179
-0.0260986
-0.0333847
-0.0394548
-0.043959
-0.0468663
-0.0482736
-0.0482823
-0.0469718
-0.0443832
-0.0404559
-0.0349408
-0.0275635
-0.018827
-0.0114682
-0.0077509
-0.00549921
-0.00681954
-0.0100181
-0.0155362
-0.0228853
-0.0308349
-0.0381406
-0.0440746
-0.0484066
-0.0511839
-0.0525388
-0.0525868
-0.0514055
-0.0490479
-0.045511
-0.0406161
-0.0339259
-0.0252522
-0.0162429
-0.00969521
-0.00861304
-0.00990654
-0.0132591
-0.0189495
-0.0263923
-0.0342979
-0.0414514
-0.0472031
-0.051391
-0.054088
-0.0554238
-0.0554954
-0.0543704
-0.0521165
-0.0488017
-0.0443923
-0.0385442
-0.0306936
-0.0217211
-0.0139025
-0.0113188
-0.0125135
-0.0158135
-0.0213914
-0.0286377
-0.0363163
-0.0432726
-0.0488878
-0.0530082
-0.0556887
-0.0570355
-0.0571231
-0.0560071
-0.053762
-0.0505169
-0.0463793
-0.0412541
-0.0344697
-0.0265015
-0.0186203
-0.0133291
-0.0143401
-0.0174207
-0.0226307
-0.0294445
-0.0367718
-0.0435404
-0.0491099
-0.0532626
-0.0560004
-0.0573906
-0.0574884
-0.056341
-0.0540252
-0.0507217
-0.0466521
-0.0420275
-0.0361418
-0.0293143
-0.0218079
-0.0146098
-0.0152912
-0.0179316
-0.0225578
-0.0287537
-0.03564
-0.0422397
-0.0478531
-0.0521419
-0.0550168
-0.0564907
-0.0565962
-0.0553762
-0.0529288
-0.0494606
-0.0452571
-0.0408818
-0.0354804
-0.0295753
-0.0223332
-0.015251
-0.015476
-0.0174133
-0.0211796
-0.0265605
-0.0329164
-0.0393537
-0.0450839
-0.0496135
-0.052722
-0.0543454
-0.0544869
-0.0531733
-0.0505283
-0.0468019
-0.042365
-0.0378428
-0.0325142
-0.0275936
-0.0198695
-0.015378
-0.0150985
-0.0160615
-0.0186539
-0.0229944
-0.0287101
-0.0349728
-0.0408783
-0.0457485
-0.049197
-0.0510542
-0.05127
-0.0498866
-0.0470016
-0.0429327
-0.038102
-0.0331691
-0.0277206
-0.023962
-0.0142295
-0.0151106
-0.0144024
-0.0140879
-0.0151588
-0.0182448
-0.0232179
-0.0292886
-0.035412
-0.0407105
-0.0446094
-0.0468149
-0.0472071
-0.0458155
-0.0427117
-0.0382527
-0.0328829
-0.0273531
-0.0216009
-0.0181648
-0.003997
-0.0145368
-0.0135249
-0.0116465
-0.0110024
-0.0127614
-0.0169841
-0.0228813
-0.0292542
-0.0350442
-0.0394905
-0.0421697
-0.0428661
-0.0415786
-0.0383464
-0.0334843
-0.0273709
-0.0207377
-0.0136285
-0.00732951
0.0155615
-0.014521
-0.0126256
-0.00870047
-0.00634308
-0.00696032
-0.0106237
-0.0164503
-0.0231062
-0.0294227
-0.0344805
-0.0377483
-0.0388904
-0.0378573
-0.034657
-0.0294355
-0.0222205
-0.01324
-0.00140845
0.0157841
0.0562953
-0.0117974
-0.0118771
-0.0059113
-0.00205325
-0.00200817
-0.00549406
-0.0114256
-0.0183954
-0.0252035
-0.0308214
-0.0346872
-0.03638
-0.0358077
-0.0327018
-0.0269121
-0.0176471
-0.00370037
0.0195658
0.0596411
0.128941
-0.0295039
-0.0107308
-0.000871306
0.0027247
0.00212064
-0.00173602
-0.00794299
-0.0152258
-0.022391
-0.0283858
-0.0326239
-0.0346626
-0.0343711
-0.0313366
-0.0249205
-0.0129436
0.00890001
0.0503074
0.121921
0.225275
)
;

boundaryField
{
    movingWall
    {
        type            zeroGradient;
    }
    fixedWalls
    {
        type            zeroGradient;
    }
    frontAndBack
    {
        type            empty;
    }
}


// ************************************************************************* //
