/*--------------------------------*- C++ -*----------------------------------*\
| =========                 |                                                 |
| \\      /  F ield         | OpenFOAM: The Open Source CFD Toolbox           |
|  \\    /   O peration     | Version:  2212                                  |
|   \\  /    A nd           | Website:  www.openfoam.com                      |
|    \\/     M anipulation  |                                                 |
\*---------------------------------------------------------------------------*/
FoamFile
{
    version     2.0;
    format      ascii;
    arch        "LSB;label=32;scalar=64";
    class       volVectorField;
    location    "1.995";
    object      U;
}
// * * * * * * * * * * * * * * * * * * * * * * * * * * * * * * * * * * * * * //

dimensions      [0 1 -1 0 0 0 0];

internalField   nonuniform List<vector> 
400
(
(0.00108107 -0.00115439 0)
(0.00289458 -0.00119786 0)
(0.00357535 -0.000796715 0)
(0.00244597 -0.000316643 0)
(-0.00111442 0.000357809 0)
(-0.00800387 0.00159756 0)
(-0.0190592 0.00373979 0)
(-0.034262 0.00655264 0)
(-0.0517659 0.00873445 0)
(-0.0677237 0.00867944 0)
(-0.0779693 0.00603142 0)
(-0.0797912 0.00180689 0)
(-0.0720376 -0.00276959 0)
(-0.0550285 -0.00696917 0)
(-0.0320806 -0.00937278 0)
(-0.00717383 -0.00860115 0)
(0.0125366 -0.00452804 0)
(0.020004 0.00203388 0)
(0.0137282 0.00538218 0)
(0.00380877 0.00402584 0)
(0.000744141 -0.00289267 0)
(0.000458604 -0.00168989 0)
(-0.00368759 0.00144958 0)
(-0.0129265 0.00568998 0)
(-0.028923 0.0114148 0)
(-0.0524518 0.0187923 0)
(-0.0817229 0.0263359 0)
(-0.111884 0.0307458 0)
(-0.137417 0.0292798 0)
(-0.154524 0.0217509 0)
(-0.161248 0.00979498 0)
(-0.157074 -0.00440861 0)
(-0.14248 -0.0189874 0)
(-0.117919 -0.0316892 0)
(-0.0855904 -0.0390331 0)
(-0.0482099 -0.0371546 0)
(-0.0113836 -0.0240543 0)
(0.0138668 -0.00236073 0)
(0.0154189 0.0135016 0)
(0.00500693 0.0128093 0)
(-0.000925979 -0.00199783 0)
(-0.00636192 0.00375802 0)
(-0.01869 0.0130786 0)
(-0.0386664 0.0252992 0)
(-0.0672355 0.0395191 0)
(-0.102112 0.0526108 0)
(-0.137829 0.0600206 0)
(-0.168983 0.0586903 0)
(-0.192551 0.0485779 0)
(-0.207285 0.0314374 0)
(-0.212731 0.00942005 0)
(-0.20915 -0.0153804 0)
(-0.19681 -0.0408305 0)
(-0.175344 -0.0635491 0)
(-0.144572 -0.0787359 0)
(-0.104719 -0.0799073 0)
(-0.0579989 -0.0609356 0)
(-0.0124901 -0.0222048 0)
(0.00860404 0.0144865 0)
(0.00406582 0.0206992 0)
(-0.00314147 0.00409478 0)
(-0.0150242 0.0176728 0)
(-0.0363011 0.0347667 0)
(-0.0654568 0.0550786 0)
(-0.101515 0.0748938 0)
(-0.139806 0.0884638 0)
(-0.174506 0.0913438 0)
(-0.202327 0.0827976 0)
(-0.222574 0.0648623 0)
(-0.235323 0.0399591 0)
(-0.240965 0.01005 0)
(-0.240129 -0.0233442 0)
(-0.232867 -0.0581298 0)
(-0.21823 -0.0912721 0)
(-0.194448 -0.11766 0)
(-0.159116 -0.129048 0)
(-0.110439 -0.114382 0)
(-0.0509359 -0.0653484 0)
(-0.000858699 0.00122765 0)
(0.00457642 0.0251054 0)
(-0.00536048 0.0158396 0)
(-0.0230313 0.039315 0)
(-0.0510115 0.0636668 0)
(-0.0851468 0.0896338 0)
(-0.12287 0.111113 0)
(-0.158687 0.121638 0)
(-0.188138 0.118481 0)
(-0.210058 0.103149 0)
(-0.225017 0.0788122 0)
(-0.234122 0.0481729 0)
(-0.238793 0.0130045 0)
(-0.24003 -0.0256913 0)
(-0.237886 -0.0666289 0)
(-0.231572 -0.108118 0)
(-0.218676 -0.146357 0)
(-0.194833 -0.173282 0)
(-0.154713 -0.174615 0)
(-0.0945006 -0.131267 0)
(-0.0196365 -0.0364548 0)
(0.00670925 0.0243478 0)
(-0.00663048 0.0315437 0)
(-0.0277277 0.0656573 0)
(-0.0586878 0.0954716 0)
(-0.0931359 0.124111 0)
(-0.127788 0.144225 0)
(-0.157496 0.149876 0)
(-0.1795 0.140313 0)
(-0.19406 0.118795 0)
(-0.202556 0.0893004 0)
(-0.206982 0.0548993 0)
(-0.209404 0.0174139 0)
(-0.211057 -0.0224809 0)
(-0.212299 -0.064818 0)
(-0.213023 -0.109757 0)
(-0.211279 -0.156022 0)
(-0.202076 -0.198207 0)
(-0.177732 -0.222523 0)
(-0.130274 -0.203045 0)
(-0.0562476 -0.1087 0)
(0.00517797 0.0129239 0)
(-0.00643641 0.0487959 0)
(-0.0278641 0.0931416 0)
(-0.0580156 0.126282 0)
(-0.0891633 0.155014 0)
(-0.118046 0.171827 0)
(-0.14041 0.171782 0)
(-0.155015 0.155929 0)
(-0.163036 0.128903 0)
(-0.166393 0.0953865 0)
(-0.167421 0.0587359 0)
(-0.168019 0.0206963 0)
(-0.169158 -0.0183344 0)
(-0.171434 -0.0591018 0)
(-0.175481 -0.102946 0)
(-0.18065 -0.150951 0)
(-0.183215 -0.201915 0)
(-0.175222 -0.246661 0)
(-0.146851 -0.259277 0)
(-0.0920757 -0.191881 0)
(-0.00740296 -0.0137329 0)
(-0.00481247 0.0649091 0)
(-0.0236593 0.118689 0)
(-0.0500461 0.153521 0)
(-0.0757852 0.180639 0)
(-0.0980334 0.193231 0)
(-0.113628 0.187443 0)
(-0.122478 0.165867 0)
(-0.126271 0.134255 0)
(-0.12716 0.0978165 0)
(-0.127289 0.0598931 0)
(-0.1278 0.021836 0)
(-0.128966 -0.0163244 0)
(-0.131188 -0.0553271 0)
(-0.135414 -0.0964601 0)
(-0.142357 -0.141863 0)
(-0.150664 -0.19414 0)
(-0.154034 -0.251078 0)
(-0.141978 -0.292503 0)
(-0.107212 -0.261802 0)
(-0.0279689 -0.0684717 0)
(-0.00221563 0.0774514 0)
(-0.0163489 0.139808 0)
(-0.0370902 0.175411 0)
(-0.056521 0.20005 0)
(-0.0723417 0.208416 0)
(-0.0824448 0.197704 0)
(-0.0874736 0.171656 0)
(-0.0892424 0.136815 0)
(-0.089764 0.0986837 0)
(-0.0906052 0.0603426 0)
(-0.0920769 0.0225496 0)
(-0.093903 -0.0151268 0)
(-0.0961593 -0.0532341 0)
(-0.0995758 -0.092299 0)
(-0.105586 -0.134109 0)
(-0.115145 -0.183263 0)
(-0.124786 -0.244506 0)
(-0.123772 -0.307944 0)
(-0.104332 -0.318202 0)
(-0.0356987 -0.150542 0)
(0.000784478 0.0846665 0)
(-0.00731115 0.15494 0)
(-0.0213233 0.191314 0)
(-0.0342318 0.213627 0)
(-0.0441748 0.218582 0)
(-0.0499771 0.204267 0)
(-0.0525933 0.175221 0)
(-0.0535915 0.138519 0)
(-0.0545384 0.0997789 0)
(-0.0563635 0.0616639 0)
(-0.0588799 0.0242849 0)
(-0.0616146 -0.0131848 0)
(-0.0644436 -0.0511246 0)
(-0.0676684 -0.089295 0)
(-0.0725736 -0.128329 0)
(-0.0812311 -0.172721 0)
(-0.0936844 -0.23209 0)
(-0.0996347 -0.308837 0)
(-0.0936861 -0.356272 0)
(-0.0305583 -0.228675 0)
(0.00366442 0.0856617 0)
(0.00205058 0.163023 0)
(-0.00485423 0.200748 0)
(-0.0113577 0.221225 0)
(-0.0159359 0.223755 0)
(-0.0180658 0.207371 0)
(-0.018778 0.177014 0)
(-0.0192059 0.139891 0)
(-0.0203442 0.101462 0)
(-0.0226263 0.0639911 0)
(-0.0256947 0.0271917 0)
(-0.0291625 -0.00994816 0)
(-0.032959 -0.0477807 0)
(-0.0370854 -0.0857087 0)
(-0.0422757 -0.123264 0)
(-0.0503213 -0.163492 0)
(-0.0643398 -0.218172 0)
(-0.0744212 -0.301824 0)
(-0.080723 -0.380494 0)
(-0.0229876 -0.292533 0)
(0.00595851 0.0808413 0)
(0.010751 0.163919 0)
(0.0109069 0.203948 0)
(0.0106139 0.223714 0)
(0.0112201 0.225132 0)
(0.0127264 0.208141 0)
(0.0141149 0.177812 0)
(0.0146752 0.141208 0)
(0.0139513 0.103543 0)
(0.0118799 0.0668758 0)
(0.00881331 0.0308681 0)
(0.00490012 -0.00550324 0)
(4.77411e-05 -0.042656 0)
(-0.00567036 -0.0800103 0)
(-0.0126138 -0.116554 0)
(-0.0213676 -0.153552 0)
(-0.0374894 -0.202391 0)
(-0.0502234 -0.287878 0)
(-0.0684032 -0.392883 0)
(-0.0148911 -0.345648 0)
(0.00706926 0.0713195 0)
(0.0175462 0.157788 0)
(0.0243728 0.20045 0)
(0.0299108 0.220127 0)
(0.0355686 0.221348 0)
(0.0411304 0.205068 0)
(0.0454814 0.176114 0)
(0.0480295 0.141055 0)
(0.0486217 0.1048 0)
(0.0474272 0.0693775 0)
(0.0447866 0.0346177 0)
(0.0406493 -0.000439064 0)
(0.0348621 -0.0361186 0)
(0.0273549 -0.072095 0)
(0.0175984 -0.107273 0)
(0.00649042 -0.141706 0)
(-0.0129541 -0.185298 0)
(-0.026881 -0.269174 0)
(-0.0570806 -0.395627 0)
(-0.00677799 -0.388148 0)
(0.00660789 0.0589354 0)
(0.0213062 0.145323 0)
(0.0344301 0.190979 0)
(0.045824 0.211658 0)
(0.0567587 0.213708 0)
(0.0669825 0.199212 0)
(0.0752592 0.172642 0)
(0.080869 0.139877 0)
(0.083701 0.105494 0)
(0.0840019 0.0716404 0)
(0.0820859 0.0385229 0)
(0.0779262 0.0054339 0)
(0.0711843 -0.0279041 0)
(0.0618433 -0.0615418 0)
(0.0490078 -0.0945497 0)
(0.0342573 -0.126383 0)
(0.0100594 -0.165013 0)
(-0.00376922 -0.245891 0)
(-0.0467849 -0.392131 0)
(0.00184541 -0.423846 0)
(0.00458563 0.0463523 0)
(0.0208544 0.128535 0)
(0.0387356 0.175107 0)
(0.0555205 0.195922 0)
(0.0720415 0.198763 0)
(0.0878159 0.186656 0)
(0.101296 0.163537 0)
(0.111392 0.134337 0)
(0.117764 0.1031 0)
(0.120563 0.0719844 0)
(0.120005 0.0415919 0)
(0.116227 0.0115422 0)
(0.108515 -0.0183921 0)
(0.097378 -0.0484381 0)
(0.081021 -0.078021 0)
(0.0621734 -0.10726 0)
(0.0327416 -0.14197 0)
(0.0191837 -0.21999 0)
(-0.0370985 -0.38545 0)
(0.0121274 -0.45403 0)
(0.00143106 0.035968 0)
(0.016015 0.110008 0)
(0.0373607 0.156163 0)
(0.0594005 0.176954 0)
(0.0818893 0.180339 0)
(0.10379 0.170473 0)
(0.123297 0.151069 0)
(0.138853 0.12608 0)
(0.149728 0.0988749 0)
(0.155924 0.0714479 0)
(0.157303 0.04465 0)
(0.154497 0.0184801 0)
(0.146031 -0.00730333 0)
(0.133298 -0.0326831 0)
(0.113269 -0.0576418 0)
(0.0905176 -0.0834046 0)
(0.0559164 -0.115398 0)
(0.0413445 -0.192206 0)
(-0.0263104 -0.376652 0)
(0.0265807 -0.477833 0)
(-0.00295649 0.033317 0)
(0.00429799 0.0941882 0)
(0.0242752 0.130236 0)
(0.0510572 0.147437 0)
(0.080304 0.150675 0)
(0.109559 0.143347 0)
(0.136322 0.128467 0)
(0.158662 0.108949 0)
(0.175297 0.0874375 0)
(0.186153 0.0655634 0)
(0.190497 0.0443047 0)
(0.189468 0.0237734 0)
(0.181024 0.00399634 0)
(0.167866 -0.0153669 0)
(0.145018 -0.0343434 0)
(0.120013 -0.0558662 0)
(0.081087 -0.0871335 0)
(0.0631833 -0.166697 0)
(-0.00850484 -0.362858 0)
(0.0500708 -0.486918 0)
(-0.0104266 0.0235603 0)
(-0.00822879 0.0872655 0)
(0.00959148 0.11421 0)
(0.0396649 0.122465 0)
(0.0746428 0.121626 0)
(0.110276 0.114931 0)
(0.143478 0.103882 0)
(0.171702 0.0896795 0)
(0.193444 0.0742686 0)
(0.208931 0.0584908 0)
(0.216475 0.0435482 0)
(0.218777 0.0292627 0)
(0.211913 0.0163727 0)
(0.201781 0.00364289 0)
(0.179968 -0.00878875 0)
(0.159157 -0.0263229 0)
(0.118962 -0.0576964 0)
(0.0991978 -0.138614 0)
(0.0331173 -0.324078 0)
(0.090719 -0.454274 0)
(-0.10379 0.0859855 0)
(-0.076919 0.0705898 0)
(-0.0520891 0.0685713 0)
(-0.00608823 0.069741 0)
(0.040699 0.0690896 0)
(0.0875485 0.0657138 0)
(0.130468 0.0602172 0)
(0.169928 0.0528319 0)
(0.201039 0.0450842 0)
(0.228954 0.0369644 0)
(0.245919 0.0296687 0)
(0.262367 0.0226382 0)
(0.265301 0.0168773 0)
(0.271547 0.0111402 0)
(0.259253 0.00519694 0)
(0.254837 -0.00572164 0)
(0.21915 -0.0310904 0)
(0.210511 -0.0926502 0)
(0.14757 -0.229201 0)
(0.170102 -0.341255 0)
(0.131455 0.105225 0)
(0.161579 0.0783981 0)
(0.216875 0.0564087 0)
(0.274334 0.0438457 0)
(0.324011 0.0370822 0)
(0.3724 0.0323946 0)
(0.413205 0.0290562 0)
(0.455274 0.0256535 0)
(0.486405 0.0230962 0)
(0.520517 0.020023 0)
(0.539941 0.018052 0)
(0.56622 0.0152138 0)
(0.573626 0.0139572 0)
(0.593384 0.0112091 0)
(0.58696 0.010403 0)
(0.59751 0.00592 0)
(0.564238 0.0010465 0)
(0.546754 -0.0174917 0)
(0.436928 -0.0499745 0)
(0.337658 -0.101224 0)
)
;

boundaryField
{
    movingWall
    {
        type            fixedValue;
        value           uniform (1 0 0);
    }
    fixedWalls
    {
        type            noSlip;
    }
    frontAndBack
    {
        type            empty;
    }
}


// ************************************************************************* //
