/*--------------------------------*- C++ -*----------------------------------*\
| =========                 |                                                 |
| \\      /  F ield         | OpenFOAM: The Open Source CFD Toolbox           |
|  \\    /   O peration     | Version:  2212                                  |
|   \\  /    A nd           | Website:  www.openfoam.com                      |
|    \\/     M anipulation  |                                                 |
\*---------------------------------------------------------------------------*/
FoamFile
{
    version     2.0;
    format      ascii;
    arch        "LSB;label=32;scalar=64";
    class       volVectorField;
    location    "4.48";
    object      U;
}
// * * * * * * * * * * * * * * * * * * * * * * * * * * * * * * * * * * * * * //

dimensions      [0 1 -1 0 0 0 0];

internalField   nonuniform List<vector> 
400
(
(0.0016665 -0.00167119 0)
(0.00478964 -0.00187619 0)
(0.00651502 -0.00119167 0)
(0.00559111 -0.000568986 0)
(0.00149754 0.000189571 0)
(-0.00686821 0.00173798 0)
(-0.0205754 0.00476028 0)
(-0.0394038 0.00867877 0)
(-0.0605689 0.0112285 0)
(-0.07884 0.0104748 0)
(-0.0895268 0.00677252 0)
(-0.0902442 0.00169497 0)
(-0.0801207 -0.00356949 0)
(-0.0600174 -0.008221 0)
(-0.0336667 -0.0108008 0)
(-0.0055232 -0.0097727 0)
(0.0164698 -0.00480165 0)
(0.0242713 0.00273106 0)
(0.01609 0.00642787 0)
(0.00430172 0.00469453 0)
(0.00169255 -0.00500881 0)
(0.00308566 -0.00397182 0)
(-0.000516791 0.000612829 0)
(-0.0113981 0.00642996 0)
(-0.0313961 0.0139911 0)
(-0.0609537 0.023646 0)
(-0.096463 0.0328746 0)
(-0.130931 0.0369078 0)
(-0.158367 0.033393 0)
(-0.175487 0.023363 0)
(-0.180878 0.00915655 0)
(-0.174589 -0.0068723 0)
(-0.157193 -0.0230025 0)
(-0.129423 -0.0367238 0)
(-0.0935332 -0.0443976 0)
(-0.0522561 -0.0417403 0)
(-0.0115604 -0.0263519 0)
(0.016692 -0.00139626 0)
(0.0177584 0.0160942 0)
(0.00552208 0.0147451 0)
(-0.000265765 -0.00567374 0)
(-0.00542944 0.000893177 0)
(-0.0196236 0.0142862 0)
(-0.0443991 0.0310999 0)
(-0.0800343 0.0491874 0)
(-0.121674 0.063982 0)
(-0.161638 0.0702056 0)
(-0.194435 0.0657576 0)
(-0.217955 0.0520315 0)
(-0.231601 0.0315061 0)
(-0.235384 0.00652265 0)
(-0.229962 -0.0208853 0)
(-0.215647 -0.0485518 0)
(-0.191933 -0.0728635 0)
(-0.158551 -0.0886878 0)
(-0.115465 -0.0889919 0)
(-0.0644767 -0.0669636 0)
(-0.0139056 -0.0228162 0)
(0.00941203 0.0177134 0)
(0.00415301 0.0234593 0)
(-0.00347078 0.000575835 0)
(-0.0174737 0.0172849 0)
(-0.0433632 0.0413492 0)
(-0.0793303 0.0678509 0)
(-0.122364 0.0906839 0)
(-0.165044 0.103334 0)
(-0.200957 0.102444 0)
(-0.228165 0.0893246 0)
(-0.246927 0.0671258 0)
(-0.257848 0.0385489 0)
(-0.261766 0.00546752 0)
(-0.259485 -0.0307908 0)
(-0.250941 -0.0679898 0)
(-0.235087 -0.103194 0)
(-0.20993 -0.130939 0)
(-0.172768 -0.142431 0)
(-0.121047 -0.125501 0)
(-0.0567417 -0.0708687 0)
(-0.00104078 0.00334066 0)
(0.0047399 0.0280897 0)
(-0.00663319 0.0148527 0)
(-0.02859 0.0440219 0)
(-0.0629644 0.0767441 0)
(-0.103898 0.108356 0)
(-0.146482 0.130539 0)
(-0.183603 0.137536 0)
(-0.211806 0.128934 0)
(-0.23148 0.108313 0)
(-0.243915 0.0795363 0)
(-0.25084 0.0453894 0)
(-0.253948 0.00740657 0)
(-0.25417 -0.0336103 0)
(-0.25128 -0.0765119 0)
(-0.244721 -0.119988 0)
(-0.231677 -0.16008 0)
(-0.207527 -0.188341 0)
(-0.166232 -0.189449 0)
(-0.103119 -0.142625 0)
(-0.0221762 -0.0389856 0)
(0.00734213 0.026924 0)
(-0.00845677 0.0348212 0)
(-0.034961 0.0763651 0)
(-0.0726503 0.114389 0)
(-0.112582 0.146931 0)
(-0.149641 0.165194 0)
(-0.178356 0.165174 0)
(-0.197757 0.149074 0)
(-0.209385 0.121965 0)
(-0.215227 0.0881967 0)
(-0.217772 0.0507575 0)
(-0.219001 0.0111115 0)
(-0.219929 -0.0303315 0)
(-0.220758 -0.0740586 0)
(-0.221574 -0.120465 0)
(-0.220174 -0.168341 0)
(-0.21145 -0.212196 0)
(-0.187312 -0.237831 0)
(-0.13918 -0.217984 0)
(-0.0626137 -0.118732 0)
(0.00577892 0.0140716 0)
(-0.00822816 0.0567994 0)
(-0.0350908 0.109537 0)
(-0.0713514 0.14973 0)
(-0.106374 0.180234 0)
(-0.135839 0.192889 0)
(-0.156116 0.185558 0)
(-0.167897 0.162508 0)
(-0.17329 0.129876 0)
(-0.17471 0.0924377 0)
(-0.174676 0.0532165 0)
(-0.174718 0.0134504 0)
(-0.175527 -0.026825 0)
(-0.177656 -0.0687758 0)
(-0.181637 -0.113712 0)
(-0.186805 -0.162765 0)
(-0.189496 -0.214781 0)
(-0.181796 -0.26075 0)
(-0.153712 -0.274417 0)
(-0.0989865 -0.205393 0)
(-0.00888975 -0.0147056 0)
(-0.00607829 0.0772341 0)
(-0.0295558 0.139895 0)
(-0.0609743 0.180283 0)
(-0.0892589 0.207232 0)
(-0.111127 0.213803 0)
(-0.124545 0.199547 0)
(-0.131093 0.17042 0)
(-0.133075 0.1334 0)
(-0.132953 0.0934969 0)
(-0.132695 0.0534389 0)
(-0.133008 0.0139504 0)
(-0.134086 -0.0253551 0)
(-0.136396 -0.0655325 0)
(-0.140629 -0.107847 0)
(-0.147385 -0.154314 0)
(-0.155317 -0.207301 0)
(-0.1584 -0.264812 0)
(-0.14625 -0.30722 0)
(-0.11186 -0.27648 0)
(-0.0308137 -0.0751434 0)
(-0.00269418 0.0931084 0)
(-0.0202338 0.164813 0)
(-0.0447887 0.20452 0)
(-0.065835 0.227362 0)
(-0.0809896 0.228319 0)
(-0.0893748 0.208399 0)
(-0.0928711 0.174733 0)
(-0.0936166 0.134818 0)
(-0.0937201 0.0936819 0)
(-0.0943715 0.0535802 0)
(-0.095632 0.0146063 0)
(-0.0974128 -0.0240439 0)
(-0.0998927 -0.0631857 0)
(-0.103582 -0.103558 0)
(-0.109629 -0.146838 0)
(-0.118751 -0.197012 0)
(-0.127751 -0.258495 0)
(-0.12613 -0.322406 0)
(-0.107168 -0.333835 0)
(-0.0372056 -0.162807 0)
(0.00122234 0.10215 0)
(-0.00883975 0.182517 0)
(-0.0254122 0.221954 0)
(-0.0393052 0.241436 0)
(-0.0487026 0.238197 0)
(-0.0534943 0.214279 0)
(-0.0553554 0.177589 0)
(-0.055938 0.135999 0)
(-0.0567708 0.0944604 0)
(-0.0584129 0.0546974 0)
(-0.0606408 0.0162456 0)
(-0.0633079 -0.0219769 0)
(-0.0664117 -0.0606567 0)
(-0.0701424 -0.100072 0)
(-0.0754448 -0.140984 0)
(-0.0839026 -0.187116 0)
(-0.0955882 -0.24683 0)
(-0.100396 -0.323159 0)
(-0.0949789 -0.371232 0)
(-0.0308526 -0.241762 0)
(0.00508055 0.103278 0)
(0.0029605 0.192029 0)
(-0.00531561 0.232368 0)
(-0.0123721 0.249394 0)
(-0.0167167 0.243303 0)
(-0.018558 0.217134 0)
(-0.0191855 0.17913 0)
(-0.0196439 0.137155 0)
(-0.0208815 0.0959183 0)
(-0.0230757 0.056761 0)
(-0.0259331 0.0189427 0)
(-0.0293851 -0.0187124 0)
(-0.0334495 -0.0569315 0)
(-0.0380817 -0.0958347 0)
(-0.0438416 -0.135417 0)
(-0.0519951 -0.178177 0)
(-0.0654479 -0.233919 0)
(-0.0741122 -0.316815 0)
(-0.0811103 -0.395673 0)
(-0.022913 -0.306217 0)
(0.00837243 0.0968402 0)
(0.0141112 0.192993 0)
(0.0140039 0.235859 0)
(0.0136177 0.252142 0)
(0.0142428 0.24505 0)
(0.0154417 0.218386 0)
(0.0163066 0.180393 0)
(0.0163653 0.138783 0)
(0.015221 0.0980642 0)
(0.0129279 0.0595156 0)
(0.00975704 0.0224286 0)
(0.00567531 -0.0143691 0)
(0.000538656 -0.0517249 0)
(-0.00552462 -0.0898011 0)
(-0.0129235 -0.128281 0)
(-0.0218567 -0.168261 0)
(-0.0376254 -0.218842 0)
(-0.0487892 -0.303124 0)
(-0.0679252 -0.407445 0)
(-0.0144705 -0.35909 0)
(0.0102032 0.0839809 0)
(0.0231967 0.185442 0)
(0.0308093 0.232002 0)
(0.0366969 0.248701 0)
(0.0423162 0.241844 0)
(0.0472279 0.216106 0)
(0.0506179 0.179414 0)
(0.0522384 0.139125 0)
(0.0520424 0.0995805 0)
(0.0502483 0.0621251 0)
(0.0471027 0.026234 0)
(0.0425141 -0.00920288 0)
(0.0363076 -0.045121 0)
(0.0285868 -0.0817506 0)
(0.0185721 -0.11876 0)
(0.00735789 -0.156446 0)
(-0.0119701 -0.202517 0)
(-0.0244623 -0.285101 0)
(-0.0559572 -0.409998 0)
(-0.00617594 -0.401003 0)
(0.00974204 0.0669221 0)
(0.0287199 0.169761 0)
(0.043931 0.220998 0)
(0.0563783 0.239937 0)
(0.067582 0.234979 0)
(0.0771805 0.211662 0)
(0.0843083 0.177451 0)
(0.0886612 0.13924 0)
(0.0903196 0.101291 0)
(0.0895995 0.0651789 0)
(0.0868405 0.0307507 0)
(0.0818102 -0.00302522 0)
(0.0743697 -0.0367693 0)
(0.0647905 -0.071095 0)
(0.0517255 -0.10583 0)
(0.0369744 -0.140906 0)
(0.0127229 -0.182432 0)
(-0.000284887 -0.261919 0)
(-0.0449865 -0.405792 0)
(0.0027013 -0.43551 0)
(0.00682934 0.0493053 0)
(0.0290158 0.148245 0)
(0.0505813 0.202555 0)
(0.0693141 0.223289 0)
(0.0866575 0.220387 0)
(0.102223 0.200275 0)
(0.114761 0.169775 0)
(0.123589 0.135026 0)
(0.128626 0.100033 0)
(0.130134 0.066496 0)
(0.128392 0.0346507 0)
(0.123465 0.00366851 0)
(0.114885 -0.0268086 0)
(0.103276 -0.0576515 0)
(0.0864061 -0.0889318 0)
(0.0674444 -0.121292 0)
(0.0376517 -0.159201 0)
(0.0234214 -0.235943 0)
(-0.0346779 -0.398165 0)
(0.0133779 -0.463853 0)
(0.00234787 0.034716 0)
(0.0233358 0.123444 0)
(0.050399 0.179086 0)
(0.0759244 0.201866 0)
(0.100405 0.201484 0)
(0.123111 0.185113 0)
(0.142392 0.159145 0)
(0.157033 0.12885 0)
(0.166624 0.0978439 0)
(0.171387 0.067827 0)
(0.171282 0.0393852 0)
(0.167033 0.0120966 0)
(0.157262 -0.0144056 0)
(0.143656 -0.0408728 0)
(0.122591 -0.0676237 0)
(0.0993117 -0.0962151 0)
(0.063778 -0.131331 0)
(0.0465281 -0.206488 0)
(-0.0229865 -0.386541 0)
(0.0283949 -0.485187 0)
(-0.00340188 0.0288387 0)
(0.00985439 0.10132 0)
(0.0366104 0.148077 0)
(0.0682297 0.168607 0)
(0.100895 0.169741 0)
(0.132395 0.157467 0)
(0.160181 0.13711 0)
(0.182527 0.112833 0)
(0.198403 0.0877121 0)
(0.208178 0.063276 0)
(0.211021 0.0402686 0)
(0.208721 0.0185497 0)
(0.198532 -0.00225027 0)
(0.184029 -0.0226382 0)
(0.15946 -0.0430988 0)
(0.133135 -0.0667306 0)
(0.0919836 -0.10065 0)
(0.0694051 -0.179235 0)
(-0.0046327 -0.369714 0)
(0.0520295 -0.49146 0)
(-0.0138607 0.0187374 0)
(-0.00750137 0.0882127 0)
(0.0189135 0.123893 0)
(0.0558526 0.136787 0)
(0.0967075 0.136264 0)
(0.136802 0.127062 0)
(0.172789 0.112448 0)
(0.202388 0.0947557 0)
(0.224091 0.076407 0)
(0.239017 0.0584052 0)
(0.244979 0.0417122 0)
(0.245861 0.0261977 0)
(0.236624 0.0120333 0)
(0.224931 -0.00160697 0)
(0.200204 -0.0155057 0)
(0.176561 -0.0343776 0)
(0.132609 -0.0671514 0)
(0.107355 -0.145623 0)
(0.037254 -0.326073 0)
(0.0922795 -0.455852 0)
(-0.105914 0.0825734 0)
(-0.0776701 0.0691165 0)
(-0.0486064 0.0732584 0)
(0.0035128 0.0776312 0)
(0.0567499 0.0778817 0)
(0.109197 0.0735924 0)
(0.156104 0.0662794 0)
(0.198217 0.0569248 0)
(0.230149 0.0473271 0)
(0.258154 0.0377571 0)
(0.273832 0.0291939 0)
(0.288977 0.0213019 0)
(0.289429 0.014642 0)
(0.293678 0.00832705 0)
(0.277646 0.00142835 0)
(0.270702 -0.00971044 0)
(0.231673 -0.0353018 0)
(0.217849 -0.0953008 0)
(0.150154 -0.229722 0)
(0.170663 -0.341483 0)
(0.130028 0.103786 0)
(0.158446 0.0753424 0)
(0.212366 0.0533565 0)
(0.270864 0.0417235 0)
(0.32335 0.035977 0)
(0.375639 0.0319805 0)
(0.420066 0.0289306 0)
(0.465211 0.0255874 0)
(0.498167 0.0229131 0)
(0.53331 0.0197283 0)
(0.552696 0.0175788 0)
(0.578503 0.0146528 0)
(0.584692 0.0132231 0)
(0.603129 0.010415 0)
(0.594691 0.00946167 0)
(0.603354 0.00507007 0)
(0.567708 0.000146651 0)
(0.547695 -0.0182812 0)
(0.435855 -0.0504127 0)
(0.336833 -0.101401 0)
)
;

boundaryField
{
    movingWall
    {
        type            fixedValue;
        value           uniform (1 0 0);
    }
    fixedWalls
    {
        type            noSlip;
    }
    frontAndBack
    {
        type            empty;
    }
}


// ************************************************************************* //
