/*--------------------------------*- C++ -*----------------------------------*\
| =========                 |                                                 |
| \\      /  F ield         | OpenFOAM: The Open Source CFD Toolbox           |
|  \\    /   O peration     | Version:  2212                                  |
|   \\  /    A nd           | Website:  www.openfoam.com                      |
|    \\/     M anipulation  |                                                 |
\*---------------------------------------------------------------------------*/
FoamFile
{
    version     2.0;
    format      ascii;
    arch        "LSB;label=32;scalar=64";
    class       volVectorField;
    location    "2.035";
    object      U;
}
// * * * * * * * * * * * * * * * * * * * * * * * * * * * * * * * * * * * * * //

dimensions      [0 1 -1 0 0 0 0];

internalField   nonuniform List<vector> 
400
(
(0.00111576 -0.00118652 0)
(0.00300875 -0.00124204 0)
(0.00375599 -0.000828145 0)
(0.00264013 -0.000336536 0)
(-0.000956825 0.000349213 0)
(-0.00794487 0.00161102 0)
(-0.0191766 0.0038065 0)
(-0.0346199 0.00668819 0)
(-0.0523736 0.00890012 0)
(-0.0685016 0.00880683 0)
(-0.0787888 0.00608736 0)
(-0.0805341 0.00179899 0)
(-0.0726066 -0.00283014 0)
(-0.0553696 -0.00706272 0)
(-0.0321743 -0.00947594 0)
(-0.00704033 -0.00868022 0)
(0.0128205 -0.00453741 0)
(0.020302 0.00209382 0)
(0.0138916 0.00545924 0)
(0.0038417 0.00407179 0)
(0.000794767 -0.00301495 0)
(0.000599368 -0.00183227 0)
(-0.00352144 0.00139253 0)
(-0.0128693 0.00573863 0)
(-0.0291258 0.0115874 0)
(-0.0530436 0.0191095 0)
(-0.0827322 0.0267679 0)
(-0.113204 0.0311721 0)
(-0.138891 0.029582 0)
(-0.156017 0.0218813 0)
(-0.162656 0.00975886 0)
(-0.15833 -0.00458476 0)
(-0.143528 -0.0192813 0)
(-0.118727 -0.0320571 0)
(-0.086133 -0.0394179 0)
(-0.0484678 -0.0374714 0)
(-0.0113712 -0.0241981 0)
(0.0140732 -0.00227394 0)
(0.0155806 0.0136901 0)
(0.00504099 0.012942 0)
(-0.000906202 -0.0022159 0)
(-0.00634524 0.00359355 0)
(-0.0187977 0.0131639 0)
(-0.0390855 0.0256766 0)
(-0.0681081 0.0401507 0)
(-0.103433 0.0533691 0)
(-0.139457 0.0607273 0)
(-0.170758 0.0592108 0)
(-0.194358 0.048859 0)
(-0.209043 0.0314744 0)
(-0.214386 0.00923075 0)
(-0.210677 -0.0157722 0)
(-0.19819 -0.0413932 0)
(-0.176554 -0.064229 0)
(-0.145581 -0.0794531 0)
(-0.10548 -0.0805445 0)
(-0.0584469 -0.0613395 0)
(-0.0125823 -0.0222239 0)
(0.00865494 0.014719 0)
(0.00406929 0.0208866 0)
(-0.00316357 0.00391025 0)
(-0.0151937 0.0176839 0)
(-0.0367847 0.0351978 0)
(-0.0663815 0.0559067 0)
(-0.102896 0.0759369 0)
(-0.141501 0.0894817 0)
(-0.176328 0.0921499 0)
(-0.204156 0.0833169 0)
(-0.224348 0.0650883 0)
(-0.236998 0.0399079 0)
(-0.24253 0.00974538 0)
(-0.241591 -0.0238823 0)
(-0.234231 -0.0588638 0)
(-0.219496 -0.0921623 0)
(-0.195602 -0.118638 0)
(-0.160122 -0.130009 0)
(-0.111209 -0.115152 0)
(-0.0513461 -0.0657044 0)
(-0.000880859 0.00138311 0)
(0.00458232 0.0253033 0)
(-0.00544335 0.0158464 0)
(-0.0233914 0.0396628 0)
(-0.0517882 0.0645188 0)
(-0.0863632 0.0908578 0)
(-0.124418 0.112417 0)
(-0.16036 0.122761 0)
(-0.189782 0.119286 0)
(-0.211601 0.103614 0)
(-0.226421 0.0789566 0)
(-0.235385 0.0480355 0)
(-0.239941 0.0126233 0)
(-0.241096 -0.0262823 0)
(-0.238892 -0.0673917 0)
(-0.232552 -0.109036 0)
(-0.219642 -0.147401 0)
(-0.195773 -0.174397 0)
(-0.15556 -0.175678 0)
(-0.0951256 -0.132053 0)
(-0.0198162 -0.0366155 0)
(0.00674809 0.0245152 0)
(-0.00674473 0.0318166 0)
(-0.0281822 0.0663904 0)
(-0.0595701 0.0967039 0)
(-0.0943712 0.125614 0)
(-0.129198 0.145655 0)
(-0.158879 0.150994 0)
(-0.180751 0.141039 0)
(-0.195142 0.119147 0)
(-0.203459 0.0893252 0)
(-0.207734 0.0546595 0)
(-0.210047 0.0169685 0)
(-0.211629 -0.0230794 0)
(-0.212833 -0.0655383 0)
(-0.213568 -0.11059 0)
(-0.211864 -0.156963 0)
(-0.202718 -0.199248 0)
(-0.178409 -0.223634 0)
(-0.130914 -0.204109 0)
(-0.0567007 -0.109405 0)
(0.00521557 0.012975 0)
(-0.00654258 0.0493604 0)
(-0.0283025 0.0942359 0)
(-0.058831 0.127807 0)
(-0.0902207 0.156678 0)
(-0.11915 0.173277 0)
(-0.141397 0.17282 0)
(-0.15583 0.156524 0)
(-0.163667 0.129106 0)
(-0.166852 0.0952667 0)
(-0.167753 0.0583743 0)
(-0.168265 0.0201644 0)
(-0.169356 -0.0189783 0)
(-0.171622 -0.0598319 0)
(-0.175688 -0.103744 0)
(-0.180897 -0.151807 0)
(-0.183522 -0.202827 0)
(-0.175602 -0.247646 0)
(-0.147301 -0.260337 0)
(-0.0925682 -0.192846 0)
(-0.00751313 -0.0138377 0)
(-0.00488047 0.0657318 0)
(-0.0239973 0.12008 0)
(-0.0506803 0.155251 0)
(-0.076563 0.182382 0)
(-0.0987747 0.194644 0)
(-0.114218 0.188367 0)
(-0.122897 0.166315 0)
(-0.126521 0.134304 0)
(-0.127262 0.0975577 0)
(-0.127283 0.0594192 0)
(-0.127723 0.021228 0)
(-0.128863 -0.0170074 0)
(-0.131108 -0.0560655 0)
(-0.135387 -0.09725 0)
(-0.142386 -0.1427 0)
(-0.150741 -0.195003 0)
(-0.154163 -0.251964 0)
(-0.14217 -0.293464 0)
(-0.107496 -0.262803 0)
(-0.0281811 -0.0689626 0)
(-0.00223044 0.0784576 0)
(-0.0165449 0.141417 0)
(-0.0374939 0.177267 0)
(-0.0569924 0.201811 0)
(-0.0727326 0.209758 0)
(-0.0826846 0.198502 0)
(-0.0875601 0.171961 0)
(-0.0891776 0.136725 0)
(-0.0895623 0.0983053 0)
(-0.0902891 0.0597808 0)
(-0.0916782 0.0219007 0)
(-0.0934825 -0.0157932 0)
(-0.0957879 -0.0538982 0)
(-0.0993043 -0.0929909 0)
(-0.105423 -0.134867 0)
(-0.11506 -0.184078 0)
(-0.124753 -0.245331 0)
(-0.123779 -0.308811 0)
(-0.104439 -0.319195 0)
(-0.035794 -0.151394 0)
(0.000827086 0.0857506 0)
(-0.00735065 0.156678 0)
(-0.0214826 0.193231 0)
(-0.0344055 0.215374 0)
(-0.0442527 0.219852 0)
(-0.0499232 0.204959 0)
(-0.0524103 0.175404 0)
(-0.0532748 0.138307 0)
(-0.0540899 0.0992856 0)
(-0.0557929 0.0610096 0)
(-0.0582179 0.0235883 0)
(-0.0609288 -0.0138285 0)
(-0.0638147 -0.051681 0)
(-0.0671701 -0.0898263 0)
(-0.0722335 -0.128933 0)
(-0.0810171 -0.173447 0)
(-0.0935386 -0.232861 0)
(-0.0995112 -0.309607 0)
(-0.0936705 -0.357134 0)
(-0.0305462 -0.229506 0)
(0.00376438 0.0867162 0)
(0.00216135 0.164806 0)
(-0.00478657 0.202679 0)
(-0.0112682 0.222936 0)
(-0.0157551 0.224947 0)
(-0.0177816 0.207958 0)
(-0.0183943 0.177081 0)
(-0.0187139 0.139558 0)
(-0.0197394 0.100849 0)
(-0.0219159 0.0632311 0)
(-0.0249074 0.0264279 0)
(-0.0283557 -0.0105885 0)
(-0.0322067 -0.0482428 0)
(-0.0364611 -0.0860701 0)
(-0.0418205 -0.123671 0)
(-0.0500227 -0.164082 0)
(-0.0641363 -0.218895 0)
(-0.0742333 -0.302558 0)
(-0.0806513 -0.381294 0)
(-0.0229519 -0.293312 0)
(0.00610665 0.081765 0)
(0.0109995 0.165658 0)
(0.0111783 0.205848 0)
(0.0109324 0.225377 0)
(0.0116164 0.226264 0)
(0.0131915 0.208661 0)
(0.0146422 0.177803 0)
(0.0152697 0.140792 0)
(0.0146136 0.102844 0)
(0.0125976 0.0660334 0)
(0.00956108 0.0300443 0)
(0.0056483 -0.00616038 0)
(0.000743633 -0.04308 0)
(-0.00507445 -0.080249 0)
(-0.0121471 -0.116788 0)
(-0.0210381 -0.153986 0)
(-0.0372598 -0.203039 0)
(-0.0500003 -0.288555 0)
(-0.068301 -0.393589 0)
(-0.01484 -0.346349 0)
(0.00724169 0.0720268 0)
(0.0179067 0.159398 0)
(0.0248134 0.202277 0)
(0.0304133 0.221733 0)
(0.0361331 0.22243 0)
(0.0417298 0.205541 0)
(0.0461009 0.176056 0)
(0.0486658 0.140591 0)
(0.0492668 0.104056 0)
(0.0480639 0.0684984 0)
(0.045397 0.0337685 0)
(0.0412094 -0.00110622 0)
(0.0353642 -0.0365282 0)
(0.0277969 -0.0722753 0)
(0.0179679 -0.107403 0)
(0.00678472 -0.142032 0)
(-0.012734 -0.185903 0)
(-0.0266559 -0.269841 0)
(-0.0569748 -0.396286 0)
(-0.00672905 -0.388769 0)
(0.00676584 0.0593739 0)
(0.0217362 0.146712 0)
(0.0350074 0.192677 0)
(0.0464858 0.213201 0)
(0.0574766 0.214773 0)
(0.0677106 0.199692 0)
(0.0759672 0.1726 0)
(0.0815403 0.139437 0)
(0.0843182 0.104784 0)
(0.0845436 0.0708029 0)
(0.0825343 0.0377116 0)
(0.0782839 0.00478952 0)
(0.0714749 -0.028296 0)
(0.0620925 -0.0617029 0)
(0.049237 -0.094636 0)
(0.0344864 -0.126643 0)
(0.0102716 -0.165577 0)
(-0.00354919 -0.246541 0)
(-0.0466775 -0.392737 0)
(0.00189728 -0.424379 0)
(0.00469281 0.0465232 0)
(0.0212962 0.129639 0)
(0.0394058 0.176633 0)
(0.0563052 0.197387 0)
(0.0728816 0.199813 0)
(0.0886563 0.187161 0)
(0.102091 0.163542 0)
(0.11211 0.133959 0)
(0.11838 0.102471 0)
(0.121054 0.0712411 0)
(0.120357 0.0408715 0)
(0.116453 0.0109685 0)
(0.108651 -0.0187544 0)
(0.0974832 -0.0486042 0)
(0.0811414 -0.0781221 0)
(0.0623581 -0.10752 0)
(0.032968 -0.142537 0)
(0.0193823 -0.220648 0)
(-0.0369858 -0.386009 0)
(0.0121909 -0.454466 0)
(0.00147452 0.0359236 0)
(0.0163961 0.11076 0)
(0.0380693 0.157431 0)
(0.0602949 0.178284 0)
(0.0828755 0.181372 0)
(0.104796 0.171045 0)
(0.124257 0.151192 0)
(0.139716 0.125849 0)
(0.150454 0.09841 0)
(0.156491 0.0708729 0)
(0.157699 0.0440834 0)
(0.154738 0.0180176 0)
(0.146166 -0.0075981 0)
(0.133402 -0.0328408 0)
(0.113399 -0.0577706 0)
(0.090746 -0.0836766 0)
(0.056218 -0.11595 0)
(0.0415538 -0.19281 0)
(-0.0261701 -0.377088 0)
(0.0266625 -0.478162 0)
(-0.00297883 0.0330943 0)
(0.0045866 0.0946167 0)
(0.0249403 0.13123 0)
(0.0519734 0.148575 0)
(0.0813738 0.151626 0)
(0.110703 0.14394 0)
(0.137459 0.128684 0)
(0.159722 0.108859 0)
(0.176223 0.0871382 0)
(0.18692 0.0651581 0)
(0.191088 0.0438883 0)
(0.189915 0.0234188 0)
(0.181356 0.00374332 0)
(0.168152 -0.0155353 0)
(0.145322 -0.0345111 0)
(0.120404 -0.0561467 0)
(0.0815169 -0.0876448 0)
(0.0634364 -0.167262 0)
(-0.00834458 -0.363168 0)
(0.0501544 -0.487124 0)
(-0.0106055 0.0233016 0)
(-0.00820117 0.087343 0)
(0.0101026 0.114758 0)
(0.0405704 0.123255 0)
(0.0758412 0.122389 0)
(0.111662 0.115498 0)
(0.14494 0.104199 0)
(0.173143 0.0897715 0)
(0.194777 0.0741929 0)
(0.210123 0.0583174 0)
(0.217493 0.0433354 0)
(0.219653 0.0290628 0)
(0.212659 0.0161933 0)
(0.202478 0.00349223 0)
(0.180625 -0.008978 0)
(0.159804 -0.026587 0)
(0.119551 -0.0580868 0)
(0.0995671 -0.138932 0)
(0.033303 -0.324156 0)
(0.0907857 -0.454343 0)
(-0.103901 0.0858023 0)
(-0.0769517 0.0705297 0)
(-0.0518707 0.0688591 0)
(-0.00551778 0.0701912 0)
(0.0416082 0.069568 0)
(0.0887334 0.0661164 0)
(0.131819 0.0604965 0)
(0.171351 0.0529877 0)
(0.202429 0.0451369 0)
(0.230261 0.0369495 0)
(0.247098 0.0296101 0)
(0.263419 0.0225647 0)
(0.266228 0.0167894 0)
(0.272373 0.0110431 0)
(0.259995 0.00506039 0)
(0.255491 -0.0058946 0)
(0.219735 -0.0312982 0)
(0.210879 -0.0927837 0)
(0.147701 -0.229225 0)
(0.170122 -0.341269 0)
(0.131377 0.105143 0)
(0.161409 0.0782307 0)
(0.216635 0.0562465 0)
(0.274161 0.043734 0)
(0.323998 0.0370268 0)
(0.372594 0.0323756 0)
(0.413587 0.0290525 0)
(0.455794 0.025651 0)
(0.486998 0.023088 0)
(0.521122 0.0200081 0)
(0.540523 0.0180314 0)
(0.566744 0.0151892 0)
(0.574096 0.0139298 0)
(0.59378 0.0111776 0)
(0.5873 0.0103671 0)
(0.597767 0.00587629 0)
(0.564426 0.000995026 0)
(0.546835 -0.0175369 0)
(0.436896 -0.0500007 0)
(0.337614 -0.101234 0)
)
;

boundaryField
{
    movingWall
    {
        type            fixedValue;
        value           uniform (1 0 0);
    }
    fixedWalls
    {
        type            noSlip;
    }
    frontAndBack
    {
        type            empty;
    }
}


// ************************************************************************* //
