/*--------------------------------*- C++ -*----------------------------------*\
| =========                 |                                                 |
| \\      /  F ield         | OpenFOAM: The Open Source CFD Toolbox           |
|  \\    /   O peration     | Version:  2212                                  |
|   \\  /    A nd           | Website:  www.openfoam.com                      |
|    \\/     M anipulation  |                                                 |
\*---------------------------------------------------------------------------*/
FoamFile
{
    version     2.0;
    format      ascii;
    arch        "LSB;label=32;scalar=64";
    class       surfaceScalarField;
    location    "2.585";
    object      phi;
}
// * * * * * * * * * * * * * * * * * * * * * * * * * * * * * * * * * * * * * //

dimensions      [0 3 -1 0 0 0 0];

oriented        oriented;

internalField   nonuniform List<scalar> 
760
(
1.34491e-07
-1.34489e-07
2.48203e-07
-1.13712e-07
2.54998e-07
-6.79527e-09
1.32498e-07
1.225e-07
-1.54225e-07
2.86723e-07
-6.62041e-07
5.07816e-07
-1.42087e-06
7.58828e-07
-2.35805e-06
9.37181e-07
-3.29304e-06
9.34992e-07
-4.00785e-06
7.14807e-07
-4.33657e-06
3.28722e-07
-4.18404e-06
-1.52537e-07
-3.48527e-06
-6.98763e-07
-2.34501e-06
-1.14026e-06
-9.80109e-07
-1.3649e-06
2.52869e-07
-1.23298e-06
9.84251e-07
-7.31382e-07
9.60597e-07
2.36543e-08
4.33475e-07
5.27122e-07
4.33475e-07
9.05904e-08
-2.2508e-07
1.55764e-08
-3.86973e-08
-3.41757e-07
3.50538e-07
-1.06955e-06
8.50292e-07
-2.21466e-06
1.43184e-06
-3.71492e-06
2.00808e-06
-5.35261e-06
2.39652e-06
-6.83735e-06
2.42192e-06
-7.94411e-06
2.04175e-06
-8.55478e-06
1.32548e-06
-8.61839e-06
3.92336e-07
-8.10654e-06
-6.64381e-07
-7.0497e-06
-1.75561e-06
-5.47775e-06
-2.71221e-06
-3.52784e-06
-3.31481e-06
-1.49201e-06
-3.26881e-06
1.17826e-07
-2.34122e-06
7.94765e-07
-6.53284e-07
4.9646e-07
8.25427e-07
9.29935e-07
-1.47085e-07
-7.79947e-08
-6.38195e-07
4.52413e-07
-1.5642e-06
1.27655e-06
-2.97039e-06
2.25648e-06
-4.76134e-06
3.22278e-06
-6.67625e-06
3.92299e-06
-8.4165e-06
4.13677e-06
-9.79388e-06
3.79929e-06
-1.07438e-05
2.9917e-06
-1.1253e-05
1.83461e-06
-1.1277e-05
4.16415e-07
-1.08517e-05
-1.08968e-06
-9.96638e-06
-2.64097e-06
-8.56867e-06
-4.10992e-06
-6.63792e-06
-5.24556e-06
-4.26296e-06
-5.64377e-06
-1.82825e-06
-4.77593e-06
-9.76081e-08
-2.38393e-06
2.84457e-07
4.43362e-07
1.21439e-06
-4.77023e-07
3.99028e-07
-1.47219e-06
1.44758e-06
-2.92311e-06
2.72747e-06
-4.76075e-06
4.09412e-06
-6.76208e-06
5.22411e-06
-8.63962e-06
5.80052e-06
-1.01854e-05
5.68257e-06
-1.13385e-05
4.95238e-06
-1.21186e-05
3.77176e-06
-1.25573e-05
2.27332e-06
-1.26435e-05
5.02624e-07
-1.24257e-05
-1.30744e-06
-1.18745e-05
-3.19221e-06
-1.08897e-05
-5.09466e-06
-9.34331e-06
-6.79199e-06
-7.11381e-06
-7.87326e-06
-4.24501e-06
-7.64472e-06
-1.33619e-06
-5.29275e-06
1.14449e-07
-1.00728e-06
1.32884e-06
-7.99368e-07
1.1984e-06
-2.19381e-06
2.84202e-06
-3.94396e-06
4.47762e-06
-5.88734e-06
6.0375e-06
-7.76702e-06
7.10379e-06
-9.35873e-06
7.39223e-06
-1.05683e-05
6.89215e-06
-1.14085e-05
5.79256e-06
-1.19354e-05
4.29871e-06
-1.22197e-05
2.55753e-06
-1.23457e-05
6.28618e-07
-1.23145e-05
-1.33863e-06
-1.21142e-05
-3.39244e-06
-1.16652e-05
-5.54368e-06
-1.07834e-05
-7.67377e-06
-9.1865e-06
-9.47021e-06
-6.5905e-06
-1.02407e-05
-3.1067e-06
-8.77655e-06
-2.56701e-07
-3.85727e-06
1.07214e-06
-9.97712e-07
2.19611e-06
-2.57777e-06
4.42207e-06
-4.36344e-06
6.2633e-06
-6.14844e-06
7.8225e-06
-7.71533e-06
8.67067e-06
-8.92085e-06
8.59776e-06
-9.74222e-06
7.71352e-06
-1.02338e-05
6.28418e-06
-1.04815e-05
4.54637e-06
-1.05848e-05
2.6608e-06
-1.06639e-05
7.07719e-07
-1.07234e-05
-1.27911e-06
-1.07728e-05
-3.34306e-06
-1.07828e-05
-5.53364e-06
-1.05974e-05
-7.85917e-06
-9.88848e-06
-1.01791e-05
-8.17208e-06
-1.19571e-05
-5.05744e-06
-1.18912e-05
-1.11634e-06
-7.79837e-06
-4.42026e-08
-1.01624e-06
3.21235e-06
-2.55531e-06
5.96114e-06
-4.16927e-06
7.87725e-06
-5.65636e-06
9.30959e-06
-6.8565e-06
9.87082e-06
-7.6916e-06
9.43285e-06
-8.18234e-06
8.20426e-06
-8.40683e-06
6.50867e-06
-8.46608e-06
4.60562e-06
-8.46019e-06
2.65491e-06
-8.47821e-06
7.25733e-07
-8.54898e-06
-1.20833e-06
-8.69341e-06
-3.19863e-06
-8.92395e-06
-5.3031e-06
-9.17885e-06
-7.60427e-06
-9.21701e-06
-1.0141e-05
-8.51572e-06
-1.26584e-05
-6.33957e-06
-1.40673e-05
-2.33169e-06
-1.18062e-05
-2.37589e-06
-8.55925e-07
4.06827e-06
-2.17877e-06
7.28399e-06
-3.50449e-06
9.20297e-06
-4.65239e-06
1.04575e-05
-5.51625e-06
1.07347e-05
-6.06519e-06
9.98179e-06
-6.34303e-06
8.4821e-06
-6.43412e-06
6.59977e-06
-6.43437e-06
4.60586e-06
-6.42188e-06
2.64242e-06
-6.43944e-06
7.43291e-07
-6.5084e-06
-1.13937e-06
-6.65501e-06
-3.05202e-06
-6.91504e-06
-5.04307e-06
-7.30547e-06
-7.21384e-06
-7.72462e-06
-9.72181e-06
-7.74598e-06
-1.26371e-05
-6.55213e-06
-1.52612e-05
-3.4566e-06
-1.49018e-05
-5.83249e-06
-5.70994e-07
4.63927e-06
-1.56907e-06
8.28206e-06
-2.55976e-06
1.01937e-05
-3.37799e-06
1.12757e-05
-3.96264e-06
1.13193e-05
-4.3137e-06
1.03328e-05
-4.48116e-06
8.64957e-06
-4.53924e-06
6.65784e-06
-4.56117e-06
4.6278e-06
-4.59433e-06
2.67558e-06
-4.65156e-06
8.00524e-07
-4.74055e-06
-1.05038e-06
-4.87596e-06
-2.91661e-06
-5.09404e-06
-4.82499e-06
-5.45811e-06
-6.84977e-06
-5.97874e-06
-9.20117e-06
-6.41478e-06
-1.2201e-05
-6.00714e-06
-1.56688e-05
-3.82896e-06
-1.708e-05
-9.66145e-06
-2.11743e-07
4.85101e-06
-8.32474e-07
8.90279e-06
-1.47714e-06
1.08383e-05
-1.99303e-06
1.17916e-05
-2.34797e-06
1.16743e-05
-2.56061e-06
1.05455e-05
-2.67517e-06
8.76413e-06
-2.74297e-06
6.72564e-06
-2.80856e-06
4.69339e-06
-2.89491e-06
2.76194e-06
-3.00391e-06
9.09526e-07
-3.13414e-06
-9.20158e-07
-3.28826e-06
-2.76249e-06
-3.486e-06
-4.62725e-06
-3.79188e-06
-6.54389e-06
-4.29572e-06
-8.69734e-06
-4.92712e-06
-1.15696e-05
-5.05348e-06
-1.55425e-05
-3.50667e-06
-1.86268e-05
-1.31681e-05
1.50007e-07
4.701e-06
-6.61199e-08
9.11892e-06
-3.84218e-07
1.11564e-05
-6.27524e-07
1.20349e-05
-7.78715e-07
1.18255e-05
-8.66627e-07
1.06334e-05
-9.30067e-07
8.82757e-06
-1.00107e-06
6.79664e-06
-1.09504e-06
4.78735e-06
-1.2177e-06
2.88459e-06
-1.36838e-06
1.06021e-06
-1.54728e-06
-7.41257e-07
-1.75326e-06
-2.5565e-06
-1.98994e-06
-4.39058e-06
-2.29662e-06
-6.2372e-06
-2.78319e-06
-8.21077e-06
-3.50655e-06
-1.08462e-05
-3.99556e-06
-1.50535e-05
-3.00357e-06
-1.96187e-05
-1.61717e-05
4.54623e-07
4.24638e-06
6.39233e-07
8.93431e-06
6.81918e-07
1.11137e-05
7.21329e-07
1.19955e-05
7.72514e-07
1.17743e-05
8.06631e-07
1.05993e-05
8.00684e-07
8.83351e-06
7.46395e-07
6.85093e-06
6.46952e-07
4.88679e-06
5.08706e-07
3.02284e-06
3.30548e-07
1.23836e-06
1.08256e-07
-5.18966e-07
-1.61898e-07
-2.28635e-06
-4.86426e-07
-4.06605e-06
-8.77552e-07
-5.84608e-06
-1.39746e-06
-7.69086e-06
-2.19954e-06
-1.00442e-05
-2.96545e-06
-1.42876e-05
-2.46726e-06
-2.01169e-05
-1.8639e-05
6.80243e-07
3.56614e-06
1.23675e-06
8.3778e-06
1.61323e-06
1.07373e-05
1.94083e-06
1.16679e-05
2.22254e-06
1.14926e-05
2.41877e-06
1.04031e-05
2.51401e-06
8.73827e-06
2.51798e-06
6.84697e-06
2.44834e-06
4.95643e-06
2.31716e-06
3.15403e-06
2.12197e-06
1.43355e-06
1.84992e-06
-2.46914e-07
1.5011e-06
-1.93752e-06
1.07008e-06
-3.63503e-06
5.49567e-07
-5.32556e-06
-1.23445e-07
-7.01785e-06
-1.00439e-06
-9.16323e-06
-1.97437e-06
-1.33176e-05
-1.95149e-06
-2.01398e-05
-2.05904e-05
7.76686e-07
2.78945e-06
1.64484e-06
7.50964e-06
2.34932e-06
1.00328e-05
2.97736e-06
1.10399e-05
3.52835e-06
1.09416e-05
3.94927e-06
9.98213e-06
4.21478e-06
8.47277e-06
4.33533e-06
6.72641e-06
4.33598e-06
4.95578e-06
4.23586e-06
3.25415e-06
4.03624e-06
1.63316e-06
3.71658e-06
7.27551e-08
3.28185e-06
-1.50279e-06
2.71728e-06
-3.07047e-06
2.02224e-06
-4.63052e-06
1.20819e-06
-6.2038e-06
1.71423e-07
-8.12646e-06
-1.04557e-06
-1.21006e-05
-1.46892e-06
-1.97165e-05
-2.20594e-05
7.12565e-07
2.07689e-06
1.75966e-06
6.46255e-06
2.74106e-06
9.05138e-06
3.68388e-06
1.0097e-05
4.55214e-06
1.00733e-05
5.27107e-06
9.2632e-06
5.79133e-06
7.95251e-06
6.10965e-06
6.40808e-06
6.24668e-06
4.81876e-06
6.22352e-06
3.2773e-06
6.04346e-06
1.81322e-06
5.69917e-06
4.17047e-07
5.17003e-06
-9.73655e-07
4.45931e-06
-2.35974e-06
3.56245e-06
-3.73366e-06
2.51063e-06
-5.15198e-06
1.25007e-06
-6.8659e-06
-2.37932e-07
-1.06126e-05
-9.7529e-07
-1.89791e-05
-2.30347e-05
5.03446e-07
1.57344e-06
1.56477e-06
5.40123e-06
2.81065e-06
7.8055e-06
4.09708e-06
8.8106e-06
5.32823e-06
8.84217e-06
6.39878e-06
8.19266e-06
7.23281e-06
7.11849e-06
7.80878e-06
5.83211e-06
8.13564e-06
4.4919e-06
8.23091e-06
3.18203e-06
8.10257e-06
1.94156e-06
7.75107e-06
7.68542e-07
7.13495e-06
-3.5753e-07
6.27474e-06
-1.49953e-06
5.16166e-06
-2.62059e-06
3.84482e-06
-3.83514e-06
2.37659e-06
-5.39767e-06
8.03072e-07
-9.03908e-06
-2.17974e-07
-1.79581e-05
-2.32526e-05
1.07513e-07
1.46593e-06
8.74236e-07
4.6345e-06
2.23619e-06
6.44354e-06
3.85955e-06
7.18724e-06
5.51245e-06
7.18927e-06
7.00786e-06
6.69725e-06
8.23334e-06
5.89301e-06
9.14983e-06
4.91561e-06
9.74628e-06
3.89546e-06
1.00337e-05
2.89457e-06
1.00164e-05
1.95891e-06
9.70254e-06
1.0824e-06
9.06352e-06
2.81492e-07
8.10138e-06
-5.37395e-07
6.83018e-06
-1.34939e-06
5.30203e-06
-2.30699e-06
3.67277e-06
-3.76841e-06
2.09243e-06
-7.45873e-06
5.94647e-07
-1.64603e-05
-2.2658e-05
-4.89757e-07
1.95569e-06
1.22861e-07
4.02189e-06
1.52356e-06
5.04285e-06
3.43665e-06
5.27414e-06
5.47352e-06
5.1524e-06
7.35498e-06
4.81579e-06
8.93599e-06
4.312e-06
1.01669e-05
3.68474e-06
1.10216e-05
3.04074e-06
1.15149e-05
2.40121e-06
1.165e-05
1.82387e-06
1.1449e-05
1.28337e-06
1.09263e-05
8.04185e-07
1.00759e-05
3.13022e-07
8.9098e-06
-1.83291e-07
7.48716e-06
-8.84352e-07
5.99975e-06
-2.281e-06
4.30764e-06
-5.76662e-06
1.99287e-06
-1.41455e-05
-2.06651e-05
-4.15221e-06
6.10789e-06
-3.64979e-06
3.51947e-06
-1.36722e-06
2.76028e-06
1.29136e-06
2.61556e-06
3.90084e-06
2.54292e-06
6.33104e-06
2.38559e-06
8.47466e-06
2.16838e-06
1.02689e-05
1.89046e-06
1.16904e-05
1.6193e-06
1.27602e-05
1.33137e-06
1.34926e-05
1.09149e-06
1.39302e-05
8.45761e-07
1.40668e-05
6.67606e-07
1.39217e-05
4.58136e-07
1.34714e-05
2.66928e-07
1.27313e-05
-1.44202e-07
1.17151e-05
-1.26483e-06
1.00201e-05
-4.07155e-06
5.59964e-06
-9.72508e-06
-1.50655e-05
6.10789e-06
9.62736e-06
1.23876e-05
1.50032e-05
1.75461e-05
1.99317e-05
2.21001e-05
2.39906e-05
2.56099e-05
2.69412e-05
2.80327e-05
2.88785e-05
2.95461e-05
3.00042e-05
3.02711e-05
3.01269e-05
2.88621e-05
2.47906e-05
1.50655e-05
)
;

boundaryField
{
    movingWall
    {
        type            calculated;
        value           uniform 0;
    }
    fixedWalls
    {
        type            calculated;
        value           uniform 0;
    }
    frontAndBack
    {
        type            empty;
        value           nonuniform List<scalar> 0();
    }
}


// ************************************************************************* //
