/*--------------------------------*- C++ -*----------------------------------*\
| =========                 |                                                 |
| \\      /  F ield         | OpenFOAM: The Open Source CFD Toolbox           |
|  \\    /   O peration     | Version:  2212                                  |
|   \\  /    A nd           | Website:  www.openfoam.com                      |
|    \\/     M anipulation  |                                                 |
\*---------------------------------------------------------------------------*/
FoamFile
{
    version     2.0;
    format      ascii;
    arch        "LSB;label=32;scalar=64";
    class       volScalarField;
    location    "0.79";
    object      p;
}
// * * * * * * * * * * * * * * * * * * * * * * * * * * * * * * * * * * * * * //

dimensions      [0 2 -2 0 0 0 0];

internalField   nonuniform List<scalar> 
400
(
3.88651e-06
-0.00582337
-0.0129613
-0.0184138
-0.0204315
-0.0182379
-0.0117733
-0.00148306
0.0118381
0.02715
0.0432453
0.058824
0.0725798
0.0833097
0.0900541
0.0922683
0.0900271
0.0842451
0.0768818
0.0710682
0.00578268
-0.000216535
-0.00580252
-0.00954135
-0.010598
-0.0084319
-0.00296923
0.00547482
0.0163036
0.0287125
0.0417507
0.054387
0.0655875
0.0744111
0.0801214
0.082317
0.0810785
0.077056
0.0712752
0.0653189
0.0133369
0.00503528
-0.000993898
-0.00442186
-0.00527185
-0.00326304
0.00160309
0.00902825
0.0185027
0.02935
0.0407663
0.0518706
0.0617696
0.0696374
0.0748081
0.0768792
0.0758427
0.0720869
0.0658065
0.0575364
0.0201412
0.00869751
0.00122724
-0.00266728
-0.003721
-0.00188434
0.00273208
0.00978525
0.018781
0.0290957
0.0399928
0.0506549
0.0602339
0.067917
0.0730042
0.0750025
0.0737668
0.069457
0.0616038
0.0501033
0.0245038
0.00977467
0.000591146
-0.00398566
-0.00530107
-0.00350629
0.00117564
0.00833531
0.0174626
0.0279497
0.0390857
0.0500707
0.0600498
0.068166
0.0736273
0.0757986
0.0743698
0.0692906
0.0595263
0.0445378
0.0251797
0.0071516
-0.00380064
-0.00905595
-0.010511
-0.00849887
-0.0033558
0.00443031
0.0143141
0.0256797
0.0378144
0.049904
0.0610489
0.070304
0.0767355
0.0795178
0.0781397
0.0723343
0.06054
0.0418906
0.0210952
-0.000260814
-0.0129331
-0.0187081
-0.0200286
-0.0174128
-0.0113173
-0.00231868
0.00899132
0.021977
0.0359103
0.049945
0.0631129
0.0743461
0.0825227
0.0865704
0.0857216
0.0794479
0.0656211
0.0430723
0.0111444
-0.0136167
-0.0278737
-0.033853
-0.0346023
-0.0308564
-0.0232117
-0.0123441
0.00110587
0.0164848
0.0330533
0.0499343
0.0660841
0.0802907
0.0912015
0.0974309
0.0978712
0.0916369
0.0758971
0.0491172
-0.0059658
-0.0342651
-0.0498687
-0.0555473
-0.0550889
-0.0495134
-0.0395924
-0.0261122
-0.00975603
0.00882403
0.0289019
0.0495944
0.0697983
0.0881553
0.103048
0.112702
0.115551
0.110193
0.0928352
0.0614122
-0.0318559
-0.0638749
-0.0804156
-0.0850059
-0.0824188
-0.0740772
-0.0609798
-0.0440355
-0.0239504
-0.00133581
0.0231467
0.048662
0.0740966
0.0979732
0.118397
0.133127
0.13999
0.136819
0.118442
0.0819348
-0.0686662
-0.104602
-0.121343
-0.123589
-0.117514
-0.105125
-0.0877171
-0.0663244
-0.0416359
-0.0141545
0.0156067
0.0469543
0.0788569
0.109795
0.137625
0.159587
0.172728
0.173779
0.155522
0.113572
-0.119401
-0.159356
-0.174914
-0.172756
-0.161146
-0.142927
-0.119758
-0.0927758
-0.0625762
-0.0294465
0.00637433
0.0444747
0.0840564
0.123704
0.161137
0.193087
0.215669
0.224078
0.208052
0.160634
-0.188627
-0.232241
-0.243937
-0.233946
-0.213693
-0.187153
-0.156371
-0.1225
-0.0858965
-0.0464708
-0.00401307
0.0415402
0.0898436
0.139831
0.18932
0.234691
0.271076
0.291666
0.281744
0.229777
-0.283973
-0.329303
-0.33183
-0.308278
-0.274707
-0.236438
-0.195762
-0.153608
-0.109838
-0.0637434
-0.0144361
0.0388652
0.096556
0.158278
0.222376
0.28529
0.341399
0.381577
0.384916
0.331836
-0.419316
-0.459669
-0.442348
-0.39579
-0.342127
-0.287737
-0.234613
-0.182927
-0.131607
-0.0789826
-0.0232117
0.0374776
0.104555
0.17884
0.259863
0.344972
0.428618
0.499702
0.529677
0.485394
-0.620529
-0.636741
-0.578674
-0.49419
-0.411238
-0.335655
-0.267777
-0.205975
-0.147534
-0.0893801
-0.0284232
0.0383511
0.11381
0.200474
0.299978
0.412028
0.533032
0.651778
0.732774
0.722398
-0.935921
-0.878512
-0.741738
-0.597945
-0.474389
-0.372656
-0.288865
-0.217759
-0.15395
-0.0924606
-0.028714
0.0416989
0.123267
0.220721
0.338929
0.482158
0.652
0.841345
1.01527
1.09751
-1.47642
-1.20663
-0.9205
-0.691384
-0.517301
-0.38754
-0.290057
-0.213334
-0.14812
-0.087212
-0.0245742
0.0454609
0.128941
0.233074
0.367107
0.542681
0.771296
1.05932
1.40329
1.73014
-2.53964
-1.63054
-1.04443
-0.710955
-0.495747
-0.352089
-0.254527
-0.183579
-0.126166
-0.0735916
-0.0192656
0.0427903
0.119216
0.218786
0.354816
0.547987
0.826396
1.23658
1.91168
2.9242
-4.36666
-2.04463
-0.973538
-0.563177
-0.357842
-0.240143
-0.170116
-0.123779
-0.0874777
-0.0535068
-0.0166511
0.027664
0.0846107
0.161733
0.272415
0.442102
0.718222
1.22571
2.41104
4.84853
)
;

boundaryField
{
    movingWall
    {
        type            zeroGradient;
    }
    fixedWalls
    {
        type            zeroGradient;
    }
    frontAndBack
    {
        type            empty;
    }
}


// ************************************************************************* //
