/*--------------------------------*- C++ -*----------------------------------*\
| =========                 |                                                 |
| \\      /  F ield         | OpenFOAM: The Open Source CFD Toolbox           |
|  \\    /   O peration     | Version:  2212                                  |
|   \\  /    A nd           | Website:  www.openfoam.com                      |
|    \\/     M anipulation  |                                                 |
\*---------------------------------------------------------------------------*/
FoamFile
{
    version     2.0;
    format      ascii;
    arch        "LSB;label=32;scalar=64";
    class       volScalarField;
    location    "2.095";
    object      p;
}
// * * * * * * * * * * * * * * * * * * * * * * * * * * * * * * * * * * * * * //

dimensions      [0 2 -2 0 0 0 0];

internalField   nonuniform List<scalar> 
400
(
2.23521e-06
-0.00582618
-0.0129643
-0.0184169
-0.0204346
-0.018241
-0.0117765
-0.00148626
0.0118349
0.0271469
0.0432422
0.058821
0.0725767
0.0833065
0.0900509
0.0922651
0.0900239
0.084242
0.0768787
0.0710652
0.00577988
-0.000219533
-0.00580559
-0.00954443
-0.010601
-0.008435
-0.00297235
0.00547166
0.0163004
0.0287094
0.0417476
0.0543839
0.0655844
0.074408
0.0801183
0.0823138
0.0810753
0.0770528
0.0712721
0.0653158
0.0133339
0.00503222
-0.000996989
-0.00442497
-0.00527495
-0.00326612
0.00160001
0.00902513
0.0184996
0.0293468
0.0407631
0.0518675
0.0617665
0.0696344
0.074805
0.076876
0.0758395
0.0720837
0.0658033
0.0575333
0.0201382
0.00869444
0.00122414
-0.00267041
-0.00372413
-0.00188745
0.00272901
0.00978217
0.0187779
0.0290925
0.0399896
0.0506517
0.0602308
0.0679139
0.0730011
0.0749994
0.0737636
0.0694539
0.0616006
0.0501001
0.0245007
0.0097716
0.00058805
-0.0039888
-0.00530423
-0.00350943
0.00117254
0.00833224
0.0174596
0.0279466
0.0390825
0.0500675
0.0600466
0.0681629
0.0736242
0.0757956
0.0743667
0.0692875
0.0595231
0.0445346
0.0251766
0.00714852
-0.00380372
-0.00905906
-0.0105141
-0.00850205
-0.00335895
0.0044272
0.014311
0.0256766
0.0378113
0.0499008
0.0610457
0.0703008
0.0767324
0.0795147
0.0781367
0.0723312
0.0605368
0.0418875
0.021092
-0.000263917
-0.0129362
-0.0187111
-0.0200318
-0.017416
-0.0113205
-0.00232185
0.00898821
0.0219739
0.0359073
0.0499419
0.0631097
0.0743429
0.0825195
0.0865672
0.0857184
0.0794448
0.065618
0.0430692
0.0111412
-0.0136199
-0.0278768
-0.033856
-0.0346054
-0.0308595
-0.0232149
-0.0123473
0.0011027
0.0164817
0.0330503
0.0499313
0.066081
0.0802875
0.0911984
0.0974277
0.097868
0.0916338
0.075894
0.0491141
-0.00596896
-0.0342683
-0.0498718
-0.0555504
-0.055092
-0.0495165
-0.0395955
-0.0261154
-0.00975923
0.00882085
0.0288988
0.0495913
0.0697952
0.0881522
0.103045
0.112699
0.115548
0.11019
0.092832
0.0614091
-0.0318591
-0.0638781
-0.0804188
-0.085009
-0.0824219
-0.0740802
-0.0609829
-0.0440387
-0.0239536
-0.00133902
0.0231435
0.0486589
0.0740934
0.0979701
0.118394
0.133124
0.139986
0.136816
0.118439
0.0819316
-0.0686693
-0.104605
-0.121346
-0.123592
-0.117517
-0.105128
-0.0877202
-0.0663275
-0.0416391
-0.0141577
0.0156035
0.0469511
0.0788537
0.109791
0.137622
0.159584
0.172725
0.173776
0.155518
0.113569
-0.119404
-0.159359
-0.174917
-0.172759
-0.16115
-0.142931
-0.119761
-0.0927789
-0.0625793
-0.0294496
0.00637114
0.0444715
0.0840532
0.123701
0.161134
0.193084
0.215666
0.224075
0.208049
0.160631
-0.18863
-0.232244
-0.24394
-0.23395
-0.213696
-0.187156
-0.156374
-0.122503
-0.0858996
-0.0464739
-0.00401621
0.0415371
0.0898404
0.139828
0.189317
0.234688
0.271073
0.291663
0.281741
0.229774
-0.283976
-0.329306
-0.331833
-0.308281
-0.27471
-0.236441
-0.195766
-0.153611
-0.109841
-0.0637465
-0.0144392
0.038862
0.0965529
0.158275
0.222373
0.285287
0.341396
0.381574
0.384913
0.331833
-0.41932
-0.459672
-0.442351
-0.395793
-0.34213
-0.28774
-0.234617
-0.182931
-0.13161
-0.0789857
-0.0232148
0.0374744
0.104552
0.178837
0.25986
0.344969
0.428615
0.499699
0.529674
0.485391
-0.620532
-0.636744
-0.578677
-0.494193
-0.411241
-0.335659
-0.267781
-0.205978
-0.147537
-0.0893832
-0.0284263
0.038348
0.113806
0.200471
0.299975
0.412025
0.533029
0.651775
0.732771
0.722395
-0.935924
-0.878515
-0.741741
-0.597948
-0.474393
-0.372659
-0.288868
-0.217762
-0.153953
-0.0924638
-0.0287172
0.0416958
0.123264
0.220718
0.338926
0.482155
0.651997
0.841342
1.01527
1.0975
-1.47642
-1.20663
-0.920503
-0.691387
-0.517304
-0.387543
-0.290061
-0.213337
-0.148123
-0.0872152
-0.0245774
0.0454577
0.128938
0.233071
0.367103
0.542678
0.771293
1.05932
1.40329
1.73014
-2.53965
-1.63055
-1.04444
-0.710958
-0.49575
-0.352093
-0.25453
-0.183583
-0.126169
-0.0735948
-0.0192688
0.0427871
0.119212
0.218783
0.354812
0.547984
0.826393
1.23658
1.91168
2.92419
-4.36666
-2.04463
-0.973542
-0.56318
-0.357846
-0.240146
-0.170119
-0.123782
-0.0874808
-0.0535099
-0.0166542
0.0276608
0.0846076
0.16173
0.272411
0.442099
0.718219
1.22571
2.41103
4.84853
)
;

boundaryField
{
    movingWall
    {
        type            zeroGradient;
    }
    fixedWalls
    {
        type            zeroGradient;
    }
    frontAndBack
    {
        type            empty;
    }
}


// ************************************************************************* //
