/*--------------------------------*- C++ -*----------------------------------*\
| =========                 |                                                 |
| \\      /  F ield         | OpenFOAM: The Open Source CFD Toolbox           |
|  \\    /   O peration     | Version:  2212                                  |
|   \\  /    A nd           | Website:  www.openfoam.com                      |
|    \\/     M anipulation  |                                                 |
\*---------------------------------------------------------------------------*/
FoamFile
{
    version     2.0;
    format      ascii;
    arch        "LSB;label=32;scalar=64";
    class       volVectorField;
    location    "1.33";
    object      U;
}
// * * * * * * * * * * * * * * * * * * * * * * * * * * * * * * * * * * * * * //

dimensions      [0 1 -1 0 0 0 0];

internalField   nonuniform List<vector> 
400
(
(0.00042618 -0.000548029 0)
(0.000536504 -0.000291605 0)
(-0.000447392 -3.70357e-05 0)
(-0.00218624 0.000212982 0)
(-0.00501112 0.000644447 0)
(-0.0094998 0.00135553 0)
(-0.0161774 0.00237794 0)
(-0.0251815 0.00360638 0)
(-0.0358145 0.00465601 0)
(-0.0462465 0.00487846 0)
(-0.0538922 0.00372057 0)
(-0.0563596 0.00124198 0)
(-0.0521189 -0.00175814 0)
(-0.0408301 -0.00469968 0)
(-0.0248837 -0.00639357 0)
(-0.00725314 -0.00587331 0)
(0.00669494 -0.00336285 0)
(0.0121481 0.000854243 0)
(0.00873681 0.00324303 0)
(0.00257106 0.00254658 0)
(-0.000359325 -0.000392303 0)
(-0.00283839 0.00149663 0)
(-0.00800172 0.00308315 0)
(-0.0151294 0.00485644 0)
(-0.0249298 0.00748758 0)
(-0.0383212 0.0110825 0)
(-0.0555118 0.0151468 0)
(-0.0752948 0.018467 0)
(-0.0948211 0.0192783 0)
(-0.110405 0.0161015 0)
(-0.118905 0.00876504 0)
(-0.118556 -0.00133623 0)
(-0.109264 -0.012183 0)
(-0.0910571 -0.0219143 0)
(-0.0660966 -0.0275814 0)
(-0.037139 -0.0264312 0)
(-0.00918467 -0.0174792 0)
(0.00906495 -0.00285276 0)
(0.0106272 0.00847299 0)
(0.00366752 0.00854728 0)
(-0.00155165 0.00251141 0)
(-0.00749818 0.00795195 0)
(-0.0175864 0.0120901 0)
(-0.0303989 0.0168557 0)
(-0.0468553 0.0233627 0)
(-0.0677313 0.0310917 0)
(-0.0923776 0.0381361 0)
(-0.118306 0.0417125 0)
(-0.141773 0.0391721 0)
(-0.159213 0.0293751 0)
(-0.168354 0.0134548 0)
(-0.168456 -0.00605054 0)
(-0.159785 -0.0266368 0)
(-0.142108 -0.0452809 0)
(-0.11588 -0.057818 0)
(-0.0820102 -0.0593313 0)
(-0.0435287 -0.0455158 0)
(-0.00830065 -0.0177114 0)
(0.0071412 0.00896887 0)
(0.00355421 0.0146532 0)
(-0.00277872 0.00833287 0)
(-0.0121352 0.0187947 0)
(-0.0267986 0.0260724 0)
(-0.0445859 0.03444 0)
(-0.0665308 0.0452785 0)
(-0.0931426 0.0569925 0)
(-0.122983 0.0659691 0)
(-0.15269 0.0679481 0)
(-0.178231 0.0600936 0)
(-0.196644 0.0426709 0)
(-0.206736 0.0183055 0)
(-0.20867 -0.0102294 0)
(-0.202985 -0.0404101 0)
(-0.189282 -0.0688768 0)
(-0.166453 -0.0911295 0)
(-0.133147 -0.100574 0)
(-0.0891144 -0.0889735 0)
(-0.0383964 -0.0508926 0)
(0.000357568 -0.00114576 0)
(0.00417268 0.0187813 0)
(-0.00374686 0.0167198 0)
(-0.0158455 0.0334091 0)
(-0.0340832 0.0442051 0)
(-0.0555845 0.0564994 0)
(-0.0814303 0.0717123 0)
(-0.111743 0.0866859 0)
(-0.144139 0.0958563 0)
(-0.174291 0.0940682 0)
(-0.19817 0.079607 0)
(-0.214152 0.0548318 0)
(-0.222752 0.0232524 0)
(-0.225237 -0.0127074 0)
(-0.222655 -0.0507921 0)
(-0.214601 -0.088167 0)
(-0.199518 -0.121371 0)
(-0.173949 -0.143605 0)
(-0.134119 -0.143528 0)
(-0.0780596 -0.106264 0)
(-0.0141385 -0.0296294 0)
(0.00582817 0.0191728 0)
(-0.00422189 0.0268881 0)
(-0.0179435 0.0506531 0)
(-0.0382616 0.0651715 0)
(-0.061656 0.0813521 0)
(-0.0890087 0.100331 0)
(-0.119782 0.117066 0)
(-0.150568 0.124414 0)
(-0.176573 0.117465 0)
(-0.19474 0.0964479 0)
(-0.20535 0.0655541 0)
(-0.21046 0.0288064 0)
(-0.212062 -0.0114026 0)
(-0.211482 -0.0532325 0)
(-0.208702 -0.095586 0)
(-0.203039 -0.137276 0)
(-0.189948 -0.17367 0)
(-0.162891 -0.192984 0)
(-0.114983 -0.172863 0)
(-0.0448151 -0.0884422 0)
(0.00454853 0.0110174 0)
(-0.00403315 0.0376973 0)
(-0.0179153 0.068981 0)
(-0.0384072 0.087127 0)
(-0.0613519 0.106548 0)
(-0.0872329 0.127969 0)
(-0.114989 0.14467 0)
(-0.14076 0.148681 0)
(-0.160151 0.136041 0)
(-0.171585 0.108933 0)
(-0.176814 0.0730199 0)
(-0.178401 0.0328938 0)
(-0.178221 -0.00875012 0)
(-0.177656 -0.0504785 0)
(-0.177638 -0.0928698 0)
(-0.17886 -0.137056 0)
(-0.177808 -0.182729 0)
(-0.166755 -0.221887 0)
(-0.136069 -0.230507 0)
(-0.080147 -0.165956 0)
(-0.00484332 -0.0114298 0)
(-0.003136 0.0477893 0)
(-0.0155936 0.0866106 0)
(-0.0342736 0.108008 0)
(-0.0545127 0.12959 0)
(-0.0764336 0.151927 0)
(-0.0989208 0.167191 0)
(-0.118417 0.167222 0)
(-0.131534 0.149177 0)
(-0.138074 0.11683 0)
(-0.14042 0.0769002 0)
(-0.140693 0.0343016 0)
(-0.139909 -0.00822511 0)
(-0.138848 -0.0493378 0)
(-0.138872 -0.0894779 0)
(-0.142025 -0.130789 0)
(-0.147627 -0.177496 0)
(-0.149161 -0.229016 0)
(-0.135619 -0.265925 0)
(-0.0992709 -0.234962 0)
(-0.0233695 -0.0575992 0)
(-0.0016607 0.0558127 0)
(-0.0112875 0.101739 0)
(-0.0264964 0.125877 0)
(-0.0423875 0.148439 0)
(-0.0588386 0.170425 0)
(-0.0750954 0.183622 0)
(-0.088478 0.180056 0)
(-0.0968517 0.157837 0)
(-0.10091 0.121768 0)
(-0.102872 0.0790476 0)
(-0.103969 0.0345253 0)
(-0.10418 -0.00932899 0)
(-0.103537 -0.0510165 0)
(-0.102979 -0.0896198 0)
(-0.10525 -0.126591 0)
(-0.112489 -0.168603 0)
(-0.121287 -0.223645 0)
(-0.119969 -0.282455 0)
(-0.0991406 -0.290244 0)
(-0.0332251 -0.130942 0)
(8.69662e-05 0.0607471 0)
(-0.00569919 0.112975 0)
(-0.0163007 0.139442 0)
(-0.0269153 0.162055 0)
(-0.0371803 0.182921 0)
(-0.0469265 0.194192 0)
(-0.0546483 0.188256 0)
(-0.0593886 0.16375 0)
(-0.0621875 0.125829 0)
(-0.0645978 0.081732 0)
(-0.0669583 0.0360965 0)
(-0.068628 -0.00896105 0)
(-0.0693507 -0.0518872 0)
(-0.0694182 -0.0903761 0)
(-0.0711071 -0.124099 0)
(-0.0779542 -0.159458 0)
(-0.090664 -0.211268 0)
(-0.0977891 -0.28383 0)
(-0.0904828 -0.328867 0)
(-0.029886 -0.206443 0)
(0.00170229 0.061944 0)
(0.000213553 0.119288 0)
(-0.00517894 0.147779 0)
(-0.0102292 0.169725 0)
(-0.0141656 0.188999 0)
(-0.0173451 0.19887 0)
(-0.0194768 0.192031 0)
(-0.0206883 0.167185 0)
(-0.0220585 0.129319 0)
(-0.0243197 0.0852996 0)
(-0.0272138 0.0394642 0)
(-0.0301509 -0.00622309 0)
(-0.0328555 -0.0500917 0)
(-0.035306 -0.0891166 0)
(-0.0385801 -0.121189 0)
(-0.045674 -0.15077 0)
(-0.0609613 -0.195953 0)
(-0.0737761 -0.275447 0)
(-0.0788013 -0.352276 0)
(-0.0228599 -0.26846 0)
(0.00290203 0.0596491 0)
(0.00555058 0.120547 0)
(0.00537273 0.150824 0)
(0.00570447 0.17174 0)
(0.00788365 0.189137 0)
(0.011173 0.198065 0)
(0.014766 0.191602 0)
(0.01773 0.168061 0)
(0.0188835 0.131797 0)
(0.017941 0.089029 0)
(0.0154941 0.0438833 0)
(0.0117675 -0.00158683 0)
(0.00701443 -0.0450935 0)
(0.00115014 -0.0837454 0)
(-0.00605232 -0.114645 0)
(-0.0155402 -0.140201 0)
(-0.0340132 -0.178229 0)
(-0.0509763 -0.260095 0)
(-0.0677607 -0.364491 0)
(-0.0153159 -0.32053 0)
(0.00339437 0.0546877 0)
(0.0093548 0.116995 0)
(0.0138808 0.148434 0)
(0.0190439 0.167833 0)
(0.0266863 0.182843 0)
(0.03604 0.190764 0)
(0.0454469 0.185588 0)
(0.0533493 0.164898 0)
(0.0582875 0.131825 0)
(0.0598659 0.0916606 0)
(0.058575 0.0484358 0)
(0.0545735 0.00448142 0)
(0.0480627 -0.0374199 0)
(0.0387296 -0.0745285 0)
(0.0264191 -0.103818 0)
(0.0125177 -0.126087 0)
(-0.0101408 -0.157915 0)
(-0.0292506 -0.239096 0)
(-0.0576738 -0.366832 0)
(-0.00757531 -0.362707 0)
(0.00306789 0.0483395 0)
(0.0109596 0.109782 0)
(0.0192827 0.141946 0)
(0.0285007 0.159721 0)
(0.040584 0.171769 0)
(0.0551121 0.177932 0)
(0.0700275 0.173882 0)
(0.0831694 0.15674 0)
(0.0926653 0.128093 0)
(0.0976629 0.0920071 0)
(0.0982596 0.0523073 0)
(0.0945712 0.011753 0)
(0.0865107 -0.0268895 0)
(0.074016 -0.0609254 0)
(0.057041 -0.087923 0)
(0.0379211 -0.107695 0)
(0.0101819 -0.134418 0)
(-0.00835279 -0.214098 0)
(-0.0486732 -0.363705 0)
(0.000673489 -0.399226 0)
(0.00192429 0.0421856 0)
(0.00976501 0.100417 0)
(0.0201733 0.131136 0)
(0.0323814 0.14642 0)
(0.0478912 0.15514 0)
(0.0664522 0.15899 0)
(0.0860263 0.155467 0)
(0.104063 0.141897 0)
(0.11822 0.118571 0)
(0.127091 0.0881973 0)
(0.130118 0.0539947 0)
(0.12743 0.0188412 0)
(0.118499 -0.0148133 0)
(0.103825 -0.0443315 0)
(0.0830221 -0.0678484 0)
(0.0596259 -0.0855581 0)
(0.0274279 -0.108435 0)
(0.0122239 -0.186787 0)
(-0.0402293 -0.358534 0)
(0.0104537 -0.43227 0)
(1.50039e-05 0.0375244 0)
(0.00607015 0.0916178 0)
(0.0172293 0.120269 0)
(0.0314827 0.132667 0)
(0.0494035 0.137547 0)
(0.0705845 0.138276 0)
(0.0932523 0.134104 0)
(0.114873 0.123086 0)
(0.132847 0.1048 0)
(0.145328 0.0807621 0)
(0.151074 0.0533657 0)
(0.149988 0.0250842 0)
(0.141257 -0.00197666 0)
(0.125966 -0.0256512 0)
(0.102946 -0.0446971 0)
(0.0771724 -0.060339 0)
(0.0424599 -0.0816631 0)
(0.0315741 -0.160747 0)
(-0.0313651 -0.354855 0)
(0.0240503 -0.461425 0)
(-0.0030319 0.0397846 0)
(-0.00355397 0.0844326 0)
(0.00551675 0.103749 0)
(0.0223765 0.111575 0)
(0.0434541 0.113517 0)
(0.0674966 0.112267 0)
(0.0927182 0.107901 0)
(0.116971 0.0993176 0)
(0.137779 0.0860531 0)
(0.15321 0.0687858 0)
(0.161548 0.0492201 0)
(0.162547 0.0290104 0)
(0.154956 0.0100059 0)
(0.140809 -0.00680229 0)
(0.117601 -0.0206233 0)
(0.0929197 -0.034401 0)
(0.0587331 -0.0566618 0)
(0.0507684 -0.137439 0)
(-0.0158809 -0.346629 0)
(0.0464527 -0.476513 0)
(-0.00597561 0.031195 0)
(-0.00811691 0.086769 0)
(-0.00308373 0.100849 0)
(0.0131545 0.0993057 0)
(0.0355173 0.0949463 0)
(0.0607898 0.0902636 0)
(0.0870344 0.0849224 0)
(0.112189 0.0777599 0)
(0.134335 0.068527 0)
(0.1518 0.0570898 0)
(0.162495 0.044785 0)
(0.167175 0.0322041 0)
(0.162918 0.0209941 0)
(0.154747 0.0109029 0)
(0.13578 0.00222046 0)
(0.120439 -0.0102741 0)
(0.0889353 -0.0364655 0)
(0.0821332 -0.121852 0)
(0.0243796 -0.319042 0)
(0.0874444 -0.450436 0)
(-0.100231 0.0916067 0)
(-0.0743308 0.0743243 0)
(-0.0555761 0.0632436 0)
(-0.0201842 0.0590768 0)
(0.0150536 0.0556187 0)
(0.0506037 0.0522006 0)
(0.0844423 0.0488069 0)
(0.1175 0.0446938 0)
(0.145873 0.0402469 0)
(0.173059 0.0348148 0)
(0.191602 0.0294934 0)
(0.210199 0.0239821 0)
(0.215979 0.0196147 0)
(0.22601 0.0155787 0)
(0.217247 0.0117059 0)
(0.220707 0.00297243 0)
(0.190979 -0.0213743 0)
(0.193552 -0.0865745 0)
(0.141169 -0.228192 0)
(0.168707 -0.340611 0)
(0.133587 0.107058 0)
(0.166356 0.0827138 0)
(0.224202 0.0610022 0)
(0.280691 0.047616 0)
(0.326716 0.0395133 0)
(0.369408 0.03367 0)
(0.404047 0.0295772 0)
(0.440486 0.0258692 0)
(0.467416 0.0232654 0)
(0.499165 0.0202991 0)
(0.517451 0.0184415 0)
(0.544336 0.0157474 0)
(0.552496 0.0146678 0)
(0.574858 0.0122055 0)
(0.570468 0.0118383 0)
(0.585539 0.00780394 0)
(0.555753 0.00320207 0)
(0.543432 -0.0157598 0)
(0.438503 -0.0487755 0)
(0.339189 -0.1005 0)
)
;

boundaryField
{
    movingWall
    {
        type            fixedValue;
        value           uniform (1 0 0);
    }
    fixedWalls
    {
        type            noSlip;
    }
    frontAndBack
    {
        type            empty;
    }
}


// ************************************************************************* //
