/*--------------------------------*- C++ -*----------------------------------*\
| =========                 |                                                 |
| \\      /  F ield         | OpenFOAM: The Open Source CFD Toolbox           |
|  \\    /   O peration     | Version:  2212                                  |
|   \\  /    A nd           | Website:  www.openfoam.com                      |
|    \\/     M anipulation  |                                                 |
\*---------------------------------------------------------------------------*/
FoamFile
{
    version     2.0;
    format      ascii;
    arch        "LSB;label=32;scalar=64";
    class       surfaceScalarField;
    location    "1.875";
    object      phi;
}
// * * * * * * * * * * * * * * * * * * * * * * * * * * * * * * * * * * * * * //

dimensions      [0 3 -1 0 0 0 0];

oriented        oriented;

internalField   nonuniform List<scalar> 
760
(
8.55349e-08
-8.55374e-08
1.40938e-07
-5.54028e-08
1.21475e-07
1.94629e-08
6.55698e-09
1.14919e-07
-2.36551e-07
2.43108e-07
-6.54651e-07
4.18101e-07
-1.27446e-06
6.19808e-07
-2.05386e-06
7.79397e-07
-2.85954e-06
8.05686e-07
-3.50724e-06
6.47699e-07
-3.83502e-06
3.27779e-07
-3.74958e-06
-8.54378e-08
-3.16699e-06
-5.8259e-07
-2.1758e-06
-9.91196e-07
-9.69016e-07
-1.20678e-06
1.34067e-07
-1.10308e-06
8.12578e-07
-6.78512e-07
8.25528e-07
-1.29498e-08
3.80307e-07
4.45221e-07
3.80307e-07
1.77121e-08
-1.03249e-07
-1.05616e-07
6.79262e-08
-4.3227e-07
3.46117e-07
-1.03365e-06
7.16304e-07
-1.96499e-06
1.17445e-06
-3.20619e-06
1.6593e-06
-4.61538e-06
2.029e-06
-5.95979e-06
2.12381e-06
-7.01773e-06
1.86363e-06
-7.64664e-06
1.2766e-06
-7.77873e-06
4.59869e-07
-7.36898e-06
-4.95189e-07
-6.44306e-06
-1.50851e-06
-5.02826e-06
-2.40601e-06
-3.255e-06
-2.98004e-06
-1.39747e-06
-2.96061e-06
6.65552e-08
-2.14254e-06
7.00836e-07
-6.47231e-07
4.46129e-07
6.99927e-07
8.26436e-07
-1.73515e-07
7.02658e-08
-6.27173e-07
5.21585e-07
-1.39997e-06
1.11891e-06
-2.5497e-06
1.86603e-06
-4.04902e-06
2.67376e-06
-5.73005e-06
3.34032e-06
-7.34381e-06
3.64277e-06
-8.68656e-06
3.46656e-06
-9.65648e-06
2.83355e-06
-1.02155e-05
1.83561e-06
-1.03233e-05
5.67643e-07
-9.976e-06
-8.42449e-07
-9.17966e-06
-2.30485e-06
-7.88989e-06
-3.69577e-06
-6.09189e-06
-4.77804e-06
-3.89009e-06
-5.1624e-06
-1.64786e-06
-4.38477e-06
-7.56707e-08
-2.21942e-06
2.72665e-07
3.51592e-07
1.0991e-06
-4.17457e-07
4.87722e-07
-1.25483e-06
1.35896e-06
-2.45163e-06
2.31572e-06
-3.99915e-06
3.41355e-06
-5.7669e-06
4.44151e-06
-7.52466e-06
5.09809e-06
-9.05958e-06
5.17768e-06
-1.02623e-05
4.66931e-06
-1.11162e-05
3.68745e-06
-1.16343e-05
2.35364e-06
-1.18014e-05
7.3483e-07
-1.16369e-05
-1.007e-06
-1.11342e-05
-2.80752e-06
-1.01998e-05
-4.6302e-06
-8.7195e-06
-6.25835e-06
-6.58754e-06
-7.29435e-06
-3.88058e-06
-7.09173e-06
-1.1978e-06
-4.9022e-06
1.1692e-07
-9.63133e-07
1.21602e-06
-6.52374e-07
1.1401e-06
-1.80278e-06
2.50937e-06
-3.27482e-06
3.78775e-06
-4.9835e-06
5.12224e-06
-6.74203e-06
6.20004e-06
-8.33352e-06
6.68958e-06
-9.62129e-06
6.46545e-06
-1.05732e-05
5.62124e-06
-1.12169e-05
4.33117e-06
-1.16027e-05
2.73939e-06
-1.17901e-05
9.22271e-07
-1.17961e-05
-1.00101e-06
-1.16122e-05
-2.99147e-06
-1.11594e-05
-5.08301e-06
-1.02677e-05
-7.15001e-06
-8.6775e-06
-8.88454e-06
-6.1491e-06
-9.62014e-06
-2.83961e-06
-8.21168e-06
-2.2181e-07
-3.58094e-06
9.9421e-07
-7.98885e-07
1.93898e-06
-2.11296e-06
3.82344e-06
-3.65948e-06
5.33428e-06
-5.29963e-06
6.76239e-06
-6.84328e-06
7.74368e-06
-8.12497e-06
7.97127e-06
-9.07268e-06
7.41315e-06
-9.70251e-06
6.25108e-06
-1.00758e-05
4.70444e-06
-1.02747e-05
2.93828e-06
-1.04018e-05
1.04941e-06
-1.04949e-05
-9.07898e-07
-1.05434e-05
-2.94296e-06
-1.05252e-05
-5.10124e-06
-1.02926e-05
-7.38258e-06
-9.52923e-06
-9.64794e-06
-7.78156e-06
-1.13678e-05
-4.71972e-06
-1.12735e-05
-1.01007e-06
-7.29059e-06
-1.58592e-08
-8.13651e-07
2.75263e-06
-2.1164e-06
5.12619e-06
-3.55641e-06
6.77428e-06
-4.9719e-06
8.17788e-06
-6.20493e-06
8.97671e-06
-7.14412e-06
8.91046e-06
-7.76535e-06
8.03438e-06
-8.11519e-06
6.60093e-06
-8.27607e-06
4.86532e-06
-8.33969e-06
3.0019e-06
-8.39214e-06
1.10186e-06
-8.48099e-06
-8.19045e-07
-8.61881e-06
-2.80515e-06
-8.82562e-06
-4.89443e-06
-9.04425e-06
-7.16395e-06
-9.03045e-06
-9.66174e-06
-8.26839e-06
-1.21299e-05
-6.06621e-06
-1.34757e-05
-2.1632e-06
-1.11936e-05
-2.17906e-06
-6.94938e-07
3.44757e-06
-1.83488e-06
6.26613e-06
-3.04742e-06
7.98682e-06
-4.16802e-06
9.29848e-06
-5.08219e-06
9.89088e-06
-5.72725e-06
9.55552e-06
-6.11175e-06
8.41888e-06
-6.29756e-06
6.78674e-06
-6.36908e-06
4.93684e-06
-6.40436e-06
3.03718e-06
-6.44979e-06
1.14729e-06
-6.52539e-06
-7.43451e-07
-6.65732e-06
-2.67322e-06
-6.89085e-06
-4.66089e-06
-7.25363e-06
-6.80118e-06
-7.64763e-06
-9.26774e-06
-7.63295e-06
-1.21446e-05
-6.39409e-06
-1.47145e-05
-3.27141e-06
-1.43163e-05
-5.45047e-06
-4.73688e-07
3.92126e-06
-1.34886e-06
7.14131e-06
-2.27245e-06
8.91041e-06
-3.08558e-06
1.01116e-05
-3.71485e-06
1.05202e-05
-4.13701e-06
9.97769e-06
-4.37935e-06
8.66122e-06
-4.50327e-06
6.91067e-06
-4.57872e-06
5.01228e-06
-4.65421e-06
3.11267e-06
-4.74167e-06
1.23475e-06
-4.83468e-06
-6.50441e-07
-4.94992e-06
-2.55799e-06
-5.12983e-06
-4.48098e-06
-5.45817e-06
-6.47284e-06
-5.96026e-06
-8.76564e-06
-6.38114e-06
-1.17237e-05
-5.93847e-06
-1.51572e-05
-3.73717e-06
-1.65176e-05
-9.18765e-06
-1.90657e-07
4.11192e-06
-7.44394e-07
7.69504e-06
-1.3557e-06
9.52172e-06
-1.87406e-06
1.063e-05
-2.25721e-06
1.09033e-05
-2.51067e-06
1.02312e-05
-2.66796e-06
8.8185e-06
-2.77714e-06
7.01985e-06
-2.88298e-06
5.11813e-06
-3.00809e-06
3.23778e-06
-3.14785e-06
1.37451e-06
-3.28523e-06
-5.13062e-07
-3.41942e-06
-2.42379e-06
-3.57315e-06
-4.32726e-06
-3.82991e-06
-6.21607e-06
-4.30954e-06
-8.28602e-06
-4.93885e-06
-1.10944e-05
-5.04983e-06
-1.50462e-05
-3.48429e-06
-1.80831e-05
-1.26719e-05
1.01018e-07
4.0109e-06
-1.03306e-07
7.89937e-06
-4.07914e-07
9.82633e-06
-6.5455e-07
1.08766e-05
-8.18141e-07
1.10669e-05
-9.2011e-07
1.03331e-05
-9.9707e-07
8.89546e-06
-1.0834e-06
7.10618e-06
-1.1989e-06
5.23363e-06
-1.34678e-06
3.38565e-06
-1.52037e-06
1.5481e-06
-1.70871e-06
-3.24724e-07
-1.9007e-06
-2.2318e-06
-2.10055e-06
-4.1274e-06
-2.35755e-06
-5.95907e-06
-2.81188e-06
-7.83169e-06
-3.53587e-06
-1.03704e-05
-4.022e-06
-1.45601e-05
-3.00984e-06
-1.90953e-05
-1.56818e-05
3.40856e-07
3.67004e-06
4.76863e-07
7.76336e-06
4.99357e-07
9.80383e-06
5.33171e-07
1.08428e-05
5.92306e-07
1.10078e-05
6.45899e-07
1.02795e-05
6.61175e-07
8.88019e-06
6.23014e-07
7.14435e-06
5.31502e-07
5.32514e-06
3.93519e-07
3.52364e-06
2.13377e-07
1.72824e-06
-1.00895e-08
-1.01257e-07
-2.75833e-07
-1.96606e-06
-5.80922e-07
-3.82232e-06
-9.41882e-07
-5.59811e-06
-1.43584e-06
-7.33773e-06
-2.24087e-06
-9.56535e-06
-3.01273e-06
-1.37883e-05
-2.49482e-06
-1.96132e-05
-1.81766e-05
5.14494e-07
3.15555e-06
9.61482e-07
7.31637e-06
1.28577e-06
9.47955e-06
1.60327e-06
1.05253e-05
1.91172e-06
1.06993e-05
2.15562e-06
1.00356e-05
2.30199e-06
8.73382e-06
2.35116e-06
7.09518e-06
2.31926e-06
5.35703e-06
2.21831e-06
3.62459e-06
2.04531e-06
1.90125e-06
1.78119e-06
1.62864e-07
1.4364e-06
-1.62127e-06
1.00817e-06
-3.39409e-06
4.97877e-07
-5.08781e-06
-1.66396e-07
-6.67346e-06
-1.05943e-06
-8.67232e-06
-2.04414e-06
-1.28035e-05
-1.9886e-06
-1.96687e-05
-2.01652e-05
5.86349e-07
2.5692e-06
1.28497e-06
6.61775e-06
1.89434e-06
8.87018e-06
2.49263e-06
9.92699e-06
3.06643e-06
1.01255e-05
3.54664e-06
9.55543e-06
3.8856e-06
8.39486e-06
4.07927e-06
6.9015e-06
4.14738e-06
5.28893e-06
4.10617e-06
3.6658e-06
3.95125e-06
2.05616e-06
3.66605e-06
4.48068e-07
3.23538e-06
-1.1906e-06
2.6644e-06
-2.82311e-06
1.96006e-06
-4.38347e-06
1.13963e-06
-5.85303e-06
8.78523e-08
-7.62055e-06
-1.13563e-06
-1.158e-05
-1.51395e-06
-1.92904e-05
-2.16791e-05
5.3181e-07
2.03739e-06
1.35782e-06
5.79174e-06
2.19837e-06
8.02964e-06
3.07244e-06
9.05292e-06
3.94097e-06
9.25697e-06
4.71159e-06
8.78481e-06
5.31145e-06
7.79499e-06
5.71824e-06
6.49471e-06
5.94256e-06
5.0646e-06
5.99972e-06
3.60864e-06
5.88831e-06
2.16757e-06
5.58967e-06
7.46706e-07
5.0779e-06
-6.7883e-07
4.3651e-06
-2.11031e-06
3.45465e-06
-3.47302e-06
2.39527e-06
-4.79365e-06
1.1339e-06
-6.35918e-06
-3.24647e-07
-1.01215e-05
-1.03728e-06
-1.85778e-05
-2.27164e-05
3.63102e-07
1.67429e-06
1.17422e-06
4.98062e-06
2.21645e-06
6.98741e-06
3.36735e-06
7.90202e-06
4.54561e-06
8.07871e-06
5.63463e-06
7.69579e-06
6.53521e-06
6.89441e-06
7.20179e-06
5.82813e-06
7.62736e-06
4.63903e-06
7.8188e-06
3.4172e-06
7.77615e-06
2.21022e-06
7.49172e-06
1.03114e-06
6.9077e-06
-9.48041e-08
6.06277e-06
-1.26538e-06
4.94822e-06
-2.35847e-06
3.63802e-06
-3.48346e-06
2.19061e-06
-4.91176e-06
6.34561e-07
-8.56545e-06
-3.10238e-07
-1.7633e-05
-2.30267e-05
1.58258e-08
1.65846e-06
5.47816e-07
4.44863e-06
1.66439e-06
5.87084e-06
3.08786e-06
6.47854e-06
4.61672e-06
6.54986e-06
6.07265e-06
6.23985e-06
7.3249e-06
5.64217e-06
8.30903e-06
4.844e-06
8.99353e-06
3.95453e-06
9.37507e-06
3.03566e-06
9.44206e-06
2.14323e-06
9.19347e-06
1.27973e-06
8.6244e-06
4.74259e-07
7.68744e-06
-3.28413e-07
6.44413e-06
-1.11517e-06
4.9551e-06
-1.99443e-06
3.403e-06
-3.35966e-06
1.91186e-06
-7.07432e-06
5.22e-07
-1.62431e-05
-2.25047e-05
-4.44504e-07
2.10297e-06
-4.90491e-08
4.05318e-06
1.04109e-06
4.78071e-06
2.64839e-06
4.87123e-06
4.45734e-06
4.74091e-06
6.21394e-06
4.48324e-06
7.75869e-06
4.09743e-06
9.01681e-06
3.58588e-06
9.93733e-06
3.034e-06
1.0517e-05
2.45596e-06
1.07427e-05
1.91752e-06
1.06289e-05
1.39353e-06
1.01696e-05
9.33629e-07
9.37988e-06
4.61271e-07
8.30035e-06
-3.56357e-08
6.97801e-06
-6.72088e-07
5.6348e-06
-2.01645e-06
4.09575e-06
-5.53527e-06
1.9031e-06
-1.40505e-05
-2.06016e-05
-4.1024e-06
6.20537e-06
-3.67666e-06
3.62744e-06
-1.62578e-06
2.72983e-06
7.45501e-07
2.49995e-06
3.09941e-06
2.387e-06
5.34617e-06
2.23648e-06
7.38956e-06
2.05403e-06
9.15709e-06
1.81836e-06
1.0604e-05
1.58705e-06
1.17316e-05
1.32842e-06
1.25375e-05
1.11156e-06
1.30529e-05
8.78159e-07
1.32737e-05
7.12884e-07
1.32282e-05
5.06752e-07
1.28642e-05
3.28302e-07
1.2229e-05
-3.68727e-08
1.13756e-05
-1.16302e-06
9.85238e-06
-4.01205e-06
5.52956e-06
-9.72765e-06
-1.5072e-05
6.20537e-06
9.8328e-06
1.25626e-05
1.50626e-05
1.74496e-05
1.96861e-05
2.17401e-05
2.35585e-05
2.51455e-05
2.64739e-05
2.75855e-05
2.84636e-05
2.91765e-05
2.96833e-05
3.00116e-05
2.99747e-05
2.88117e-05
2.47996e-05
1.5072e-05
)
;

boundaryField
{
    movingWall
    {
        type            calculated;
        value           uniform 0;
    }
    fixedWalls
    {
        type            calculated;
        value           uniform 0;
    }
    frontAndBack
    {
        type            empty;
        value           nonuniform List<scalar> 0();
    }
}


// ************************************************************************* //
