/*--------------------------------*- C++ -*----------------------------------*\
| =========                 |                                                 |
| \\      /  F ield         | OpenFOAM: The Open Source CFD Toolbox           |
|  \\    /   O peration     | Version:  2212                                  |
|   \\  /    A nd           | Website:  www.openfoam.com                      |
|    \\/     M anipulation  |                                                 |
\*---------------------------------------------------------------------------*/
FoamFile
{
    version     2.0;
    format      ascii;
    arch        "LSB;label=32;scalar=64";
    class       volVectorField;
    location    "4.185";
    object      U;
}
// * * * * * * * * * * * * * * * * * * * * * * * * * * * * * * * * * * * * * //

dimensions      [0 1 -1 0 0 0 0];

internalField   nonuniform List<vector> 
400
(
(0.00165967 -0.00166534 0)
(0.00476773 -0.00186889 0)
(0.00648106 -0.0011876 0)
(0.00555404 -0.000566322 0)
(0.00146485 0.000191947 0)
(-0.00688523 0.00173733 0)
(-0.020562 0.00474902 0)
(-0.0393475 0.00865424 0)
(-0.0604699 0.011201 0)
(-0.0787174 0.0104576 0)
(-0.0894055 0.00676875 0)
(-0.0901438 0.00170156 0)
(-0.080058 -0.00355489 0)
(-0.0599993 -0.00820261 0)
(-0.0336935 -0.0107832 0)
(-0.00558559 -0.00976164 0)
(0.0163905 -0.00480685 0)
(0.0242027 0.00271687 0)
(0.016057 0.00641216 0)
(0.0042956 0.00468574 0)
(0.00168025 -0.00498327 0)
(0.00305203 -0.00394473 0)
(-0.000559699 0.000623659 0)
(-0.0114262 0.00642406 0)
(-0.0313806 0.0139645 0)
(-0.0608676 0.023591 0)
(-0.0963011 0.0327971 0)
(-0.130715 0.0368343 0)
(-0.158124 0.0333448 0)
(-0.175242 0.0233471 0)
(-0.180651 0.00917095 0)
(-0.174391 -0.00683315 0)
(-0.157037 -0.0229435 0)
(-0.129314 -0.0366554 0)
(-0.0934758 -0.0443322 0)
(-0.052251 -0.0416946 0)
(-0.0115975 -0.0263444 0)
(0.0166308 -0.0014285 0)
(0.0177194 0.0160505 0)
(0.00551455 0.0147174 0)
(-0.000276631 -0.00562672 0)
(-0.00544842 0.000932486 0)
(-0.0196258 0.0142785 0)
(-0.0443485 0.0310385 0)
(-0.0798985 0.0490765 0)
(-0.12145 0.0638439 0)
(-0.161351 0.0700752 0)
(-0.194113 0.065661 0)
(-0.217617 0.0519793 0)
(-0.231265 0.0315006 0)
(-0.235063 0.0065619 0)
(-0.229665 -0.0208057 0)
(-0.215382 -0.0484399 0)
(-0.19171 -0.0727336 0)
(-0.158377 -0.0885599 0)
(-0.115349 -0.0888912 0)
(-0.0644259 -0.0669178 0)
(-0.0139201 -0.0228485 0)
(0.00939015 0.0176483 0)
(0.00415153 0.023416 0)
(-0.00346924 0.000627657 0)
(-0.0174524 0.0173012 0)
(-0.0432919 0.0412804 0)
(-0.0791755 0.0677031 0)
(-0.122115 0.0904893 0)
(-0.164722 0.103138 0)
(-0.200596 0.102283 0)
(-0.227782 0.0892148 0)
(-0.246535 0.067071 0)
(-0.257458 0.0385503 0)
(-0.261387 0.00552493 0)
(-0.259125 -0.0306794 0)
(-0.250607 -0.0678345 0)
(-0.234789 -0.103009 0)
(-0.209675 -0.130745 0)
(-0.172566 -0.142257 0)
(-0.120913 -0.125384 0)
(-0.0566905 -0.0708447 0)
(-0.00105451 0.00327543 0)
(0.00473782 0.0280371 0)
(-0.00661967 0.0148797 0)
(-0.0285276 0.0439795 0)
(-0.0628236 0.0765929 0)
(-0.103663 0.108123 0)
(-0.146167 0.13028 0)
(-0.18324 0.137302 0)
(-0.211422 0.128752 0)
(-0.231083 0.108191 0)
(-0.243512 0.0794751 0)
(-0.250435 0.0453903 0)
(-0.253546 0.00747123 0)
(-0.253779 -0.033484 0)
(-0.250914 -0.0763329 0)
(-0.244385 -0.119769 0)
(-0.231379 -0.159839 0)
(-0.207274 -0.188104 0)
(-0.166035 -0.189249 0)
(-0.102999 -0.142509 0)
(-0.0221635 -0.0390061 0)
(0.00732873 0.0268662 0)
(-0.00843392 0.0347957 0)
(-0.0348698 0.076246 0)
(-0.0724679 0.114154 0)
(-0.112312 0.146628 0)
(-0.14931 0.164887 0)
(-0.177998 0.164912 0)
(-0.197384 0.148874 0)
(-0.208999 0.121827 0)
(-0.214827 0.0881219 0)
(-0.217356 0.050749 0)
(-0.218578 0.011174 0)
(-0.219512 -0.0301985 0)
(-0.220364 -0.0738612 0)
(-0.221216 -0.120219 0)
(-0.219858 -0.168067 0)
(-0.211178 -0.211918 0)
(-0.187087 -0.237572 0)
(-0.139012 -0.217777 0)
(-0.0625266 -0.118635 0)
(0.00575818 0.0140305 0)
(-0.00820234 0.0567107 0)
(-0.0349896 0.109339 0)
(-0.0711592 0.149421 0)
(-0.106107 0.179874 0)
(-0.135527 0.192545 0)
(-0.155786 0.185272 0)
(-0.16755 0.162287 0)
(-0.172919 0.129716 0)
(-0.174307 0.0923405 0)
(-0.174239 0.0531906 0)
(-0.174259 0.0135083 0)
(-0.175068 -0.0266769 0)
(-0.177219 -0.0685423 0)
(-0.181244 -0.113415 0)
(-0.18647 -0.162439 0)
(-0.189221 -0.214458 0)
(-0.181572 -0.260451 0)
(-0.153532 -0.274151 0)
(-0.0988501 -0.205202 0)
(-0.00887907 -0.0147247 0)
(-0.00605657 0.0770818 0)
(-0.0294636 0.139622 0)
(-0.0607999 0.179912 0)
(-0.0890231 0.206822 0)
(-0.110857 0.213426 0)
(-0.124256 0.199236 0)
(-0.13078 0.170173 0)
(-0.132723 0.133208 0)
(-0.132554 0.093364 0)
(-0.13225 0.0533826 0)
(-0.132534 0.0139944 0)
(-0.133604 -0.0251952 0)
(-0.135932 -0.0652593 0)
(-0.14021 -0.107487 0)
(-0.147033 -0.153911 0)
(-0.155041 -0.206908 0)
(-0.15819 -0.264461 0)
(-0.146091 -0.30691 0)
(-0.111732 -0.276222 0)
(-0.0307634 -0.0750666 0)
(-0.00268161 0.0929006 0)
(-0.0201637 0.164476 0)
(-0.0446507 0.204095 0)
(-0.0656478 0.226913 0)
(-0.0807743 0.227912 0)
(-0.0891389 0.20806 0)
(-0.0926041 0.174451 0)
(-0.0933051 0.134583 0)
(-0.093357 0.0935021 0)
(-0.0939633 0.0534836 0)
(-0.0951948 0.0146269 0)
(-0.0969645 -0.0238841 0)
(-0.0994549 -0.0628862 0)
(-0.103179 -0.103142 0)
(-0.109286 -0.146357 0)
(-0.118486 -0.196534 0)
(-0.12756 -0.258078 0)
(-0.126003 -0.322053 0)
(-0.107066 -0.333514 0)
(-0.0371604 -0.16259 0)
(0.00122189 0.101904 0)
(-0.00880164 0.182129 0)
(-0.0253246 0.221488 0)
(-0.0391812 0.240952 0)
(-0.0485554 0.237759 0)
(-0.0533259 0.213907 0)
(-0.0551558 0.177269 0)
(-0.0556973 0.135719 0)
(-0.0564866 0.0942352 0)
(-0.0580936 0.0545634 0)
(-0.0602985 0.0162428 0)
(-0.0629538 -0.0218239 0)
(-0.0660598 -0.0603444 0)
(-0.0698101 -0.0996194 0)
(-0.0751526 -0.140438 0)
(-0.0836743 -0.186555 0)
(-0.095431 -0.246341 0)
(-0.100311 -0.322769 0)
(-0.0949127 -0.370888 0)
(-0.0308297 -0.241482 0)
(0.00506451 0.103019 0)
(0.0029602 0.191608 0)
(-0.0052873 0.231873 0)
(-0.0123203 0.248884 0)
(-0.0166473 0.242839 0)
(-0.0184703 0.216735 0)
(-0.0190731 0.178777 0)
(-0.0195023 0.136841 0)
(-0.0207121 0.0956598 0)
(-0.022886 0.0565983 0)
(-0.0257293 0.0189176 0)
(-0.0291707 -0.0185742 0)
(-0.0332298 -0.0566233 0)
(-0.037866 -0.0953712 0)
(-0.0436417 -0.134835 0)
(-0.0518331 -0.177551 0)
(-0.0653368 -0.23336 0)
(-0.0740707 -0.316382 0)
(-0.0810766 -0.395305 0)
(-0.0229029 -0.305899 0)
(0.00833835 0.0965964 0)
(0.0140686 0.192561 0)
(0.0139681 0.235349 0)
(0.0135897 0.251617 0)
(0.0142228 0.244567 0)
(0.0154329 0.217962 0)
(0.0163124 0.180017 0)
(0.016386 0.138446 0)
(0.0152523 0.0977853 0)
(0.0129637 0.0593346 0)
(0.00979707 0.0223853 0)
(0.00572402 -0.0142492 0)
(0.000598007 -0.0514323 0)
(-0.00545702 -0.0893465 0)
(-0.0128474 -0.127695 0)
(-0.021789 -0.167605 0)
(-0.0375793 -0.218237 0)
(-0.0488004 -0.302669 0)
(-0.0679267 -0.407081 0)
(-0.0144733 -0.358766 0)
(0.0101537 0.083784 0)
(0.0231114 0.185026 0)
(0.030709 0.231496 0)
(0.0365881 0.248171 0)
(0.0422036 0.24135 0)
(0.0471162 0.215671 0)
(0.0505086 0.179029 0)
(0.0521289 0.138786 0)
(0.0519275 0.0993021 0)
(0.0501233 0.0619418 0)
(0.0469713 0.0261817 0)
(0.0423878 -0.00909964 0)
(0.0361955 -0.0448485 0)
(0.0284924 -0.0813182 0)
(0.018507 -0.118193 0)
(0.00731422 -0.155792 0)
(-0.0120007 -0.20189 0)
(-0.0245261 -0.284633 0)
(-0.055989 -0.409645 0)
(-0.00618772 -0.400696 0)
(0.00968915 0.0667996 0)
(0.0286002 0.169392 0)
(0.0437717 0.220519 0)
(0.0561913 0.239422 0)
(0.0673752 0.234487 0)
(0.0769603 0.211224 0)
(0.0840769 0.177067 0)
(0.0884159 0.138907 0)
(0.0900561 0.101023 0)
(0.089316 0.0650019 0)
(0.086537 0.0306943 0)
(0.0815119 -0.0029308 0)
(0.0740882 -0.0365193 0)
(0.0645341 -0.0706981 0)
(0.0515158 -0.105305 0)
(0.0368105 -0.140289 0)
(0.0126066 -0.181821 0)
(-0.000397403 -0.261463 0)
(-0.045045 -0.405466 0)
(0.00268042 -0.435241 0)
(0.00679063 0.049268 0)
(0.0288801 0.147956 0)
(0.0503779 0.202126 0)
(0.0690626 0.222806 0)
(0.0863689 0.219916 0)
(0.101905 0.199851 0)
(0.114417 0.169407 0)
(0.123218 0.134716 0)
(0.128225 0.0997905 0)
(0.129707 0.0663406 0)
(0.127943 0.0346037 0)
(0.123015 0.00375459 0)
(0.114445 -0.0265891 0)
(0.102868 -0.0573024 0)
(0.0860616 -0.0884684 0)
(0.0671653 -0.120741 0)
(0.0374508 -0.158641 0)
(0.02328 -0.235521 0)
(-0.0347553 -0.397878 0)
(0.0133453 -0.463644 0)
(0.00233299 0.0347486 0)
(0.0232161 0.123258 0)
(0.050181 0.17874 0)
(0.0756315 0.201446 0)
(0.100051 0.201057 0)
(0.122706 0.18472 0)
(0.141941 0.158803 0)
(0.156542 0.128566 0)
(0.166093 0.0976248 0)
(0.170824 0.0676879 0)
(0.170697 0.0393405 0)
(0.166442 0.0121588 0)
(0.15669 -0.0142313 0)
(0.143121 -0.040586 0)
(0.122131 -0.0672385 0)
(0.0989338 -0.0957572 0)
(0.0635007 -0.130856 0)
(0.0463677 -0.206143 0)
(-0.023082 -0.38634 0)
(0.0283475 -0.485048 0)
(-0.00339238 0.0289239 0)
(0.0097683 0.101243 0)
(0.0364121 0.147826 0)
(0.0679378 0.168269 0)
(0.100521 0.169384 0)
(0.131948 0.157132 0)
(0.159668 0.136819 0)
(0.181956 0.112596 0)
(0.197782 0.0875358 0)
(0.207515 0.0631694 0)
(0.210335 0.0402421 0)
(0.208022 0.0186081 0)
(0.197859 -0.00209941 0)
(0.183399 -0.0224037 0)
(0.158913 -0.0427946 0)
(0.132686 -0.0663807 0)
(0.0916617 -0.100286 0)
(0.0692409 -0.178956 0)
(-0.00472686 -0.369586 0)
(0.0519828 -0.491387 0)
(-0.0138025 0.0188216 0)
(-0.00749805 0.0882228 0)
(0.0187887 0.123769 0)
(0.0556126 0.136575 0)
(0.0963542 0.136014 0)
(0.136344 0.126814 0)
(0.17224 0.112226 0)
(0.201758 0.0945709 0)
(0.223401 0.0762695 0)
(0.238276 0.0583198 0)
(0.24422 0.041688 0)
(0.245094 0.0262341 0)
(0.235895 0.012137 0)
(0.224246 -0.00145182 0)
(0.199616 -0.015302 0)
(0.176091 -0.0341507 0)
(0.132277 -0.0669209 0)
(0.10718 -0.145483 0)
(0.037173 -0.326049 0)
(0.0922471 -0.455839 0)
(-0.105873 0.082633 0)
(-0.077638 0.0691622 0)
(-0.048627 0.0732101 0)
(0.0034012 0.0775263 0)
(0.0565305 0.0777476 0)
(0.108871 0.0734535 0)
(0.155683 0.0661534 0)
(0.19771 0.0568207 0)
(0.229583 0.0472527 0)
(0.257541 0.0377138 0)
(0.273207 0.0291867 0)
(0.288351 0.0213269 0)
(0.288842 0.0147002 0)
(0.293141 0.00840877 0)
(0.277204 0.00153426 0)
(0.270355 -0.00960443 0)
(0.231427 -0.0352071 0)
(0.217734 -0.0952558 0)
(0.150128 -0.229719 0)
(0.170657 -0.34149 0)
(0.130051 0.103803 0)
(0.158495 0.0753873 0)
(0.212443 0.0534061 0)
(0.270935 0.0417613 0)
(0.323384 0.0360002 0)
(0.375614 0.0319916 0)
(0.419976 0.0289355 0)
(0.465057 0.0255898 0)
(0.497964 0.0229171 0)
(0.533071 0.0197348 0)
(0.55244 0.01759 0)
(0.578247 0.0146678 0)
(0.584455 0.0132433 0)
(0.602927 0.0104387 0)
(0.594539 0.00948861 0)
(0.603258 0.0050943 0)
(0.56767 0.000167106 0)
(0.547716 -0.0182681 0)
(0.435907 -0.0504103 0)
(0.336859 -0.101404 0)
)
;

boundaryField
{
    movingWall
    {
        type            fixedValue;
        value           uniform (1 0 0);
    }
    fixedWalls
    {
        type            noSlip;
    }
    frontAndBack
    {
        type            empty;
    }
}


// ************************************************************************* //
