/*--------------------------------*- C++ -*----------------------------------*\
| =========                 |                                                 |
| \\      /  F ield         | OpenFOAM: The Open Source CFD Toolbox           |
|  \\    /   O peration     | Version:  2212                                  |
|   \\  /    A nd           | Website:  www.openfoam.com                      |
|    \\/     M anipulation  |                                                 |
\*---------------------------------------------------------------------------*/
FoamFile
{
    version     2.0;
    format      ascii;
    arch        "LSB;label=32;scalar=64";
    class       volScalarField;
    location    "3.625";
    object      p;
}
// * * * * * * * * * * * * * * * * * * * * * * * * * * * * * * * * * * * * * //

dimensions      [0 2 -2 0 0 0 0];

internalField   nonuniform List<scalar> 
400
(
1.30557e-08
-0.000149261
-0.000526311
-0.00105463
-0.00170477
-0.00245237
-0.00313215
-0.00353825
-0.00350402
-0.00287678
-0.0015052
0.000638571
0.00324683
0.00550784
0.00655384
0.0059954
0.00412711
0.00230477
0.00127118
0.00119688
0.000116513
-5.5337e-05
-0.000368002
-0.000749868
-0.00122377
-0.00185662
-0.00265708
-0.00347468
-0.00399693
-0.00385384
-0.00277576
-0.000778372
0.00171336
0.00398026
0.00516779
0.00483336
0.00324731
0.00153992
0.000760792
0.000842848
0.000527529
0.000262908
-7.24132e-05
-0.000546957
-0.00131958
-0.00252561
-0.00412589
-0.00584909
-0.0072355
-0.00776548
-0.00709825
-0.00532052
-0.00277833
-9.91024e-05
0.00189162
0.00255347
0.00186951
0.000680156
-0.000215748
-0.000222672
0.00112444
0.000722416
0.000187429
-0.000755905
-0.00239083
-0.00481638
-0.00780086
-0.0108544
-0.0133812
-0.0148266
-0.0148591
-0.0135171
-0.0110112
-0.00778918
-0.00454436
-0.00201843
-0.000684794
-0.000523008
-0.00110449
-0.00173703
0.00152625
0.000933148
-3.25877e-05
-0.00187922
-0.00487836
-0.00894545
-0.0135655
-0.0180269
-0.0216817
-0.0240696
-0.0249338
-0.0241553
-0.0218515
-0.018302
-0.0139364
-0.00935532
-0.00534962
-0.00274935
-0.0020156
-0.00382184
0.00121921
0.000395559
-0.00119285
-0.00420547
-0.00877421
-0.0144977
-0.0205391
-0.0260483
-0.0304203
-0.0333417
-0.0346874
-0.0343594
-0.0324339
-0.0290495
-0.0243381
-0.0185125
-0.0121666
-0.0067026
-0.00420414
-0.00630632
-0.000114541
-0.00118059
-0.00345333
-0.00761667
-0.0135762
-0.0205681
-0.0275094
-0.0335228
-0.0381181
-0.0411384
-0.0425953
-0.0425111
-0.0409486
-0.0379691
-0.0335406
-0.0275377
-0.0200714
-0.0123749
-0.00762133
-0.00755271
-0.00247886
-0.00373063
-0.00658625
-0.0116346
-0.0185512
-0.026275
-0.0335923
-0.0396858
-0.0442092
-0.0471321
-0.0485496
-0.0485604
-0.0472418
-0.0446343
-0.0406782
-0.0351272
-0.0277105
-0.0189334
-0.0115385
-0.00779708
-0.00550615
-0.00684002
-0.010073
-0.0156425
-0.0230457
-0.0310385
-0.0383755
-0.0443344
-0.0486889
-0.0514861
-0.0528555
-0.0529093
-0.0517219
-0.0493452
-0.0457768
-0.0408419
-0.0341077
-0.0253882
-0.0163351
-0.00975497
-0.00863802
-0.009945
-0.0133331
-0.0190764
-0.0265741
-0.034523
-0.0417086
-0.0474873
-0.0517006
-0.0544213
-0.0557754
-0.0558558
-0.0547265
-0.0524535
-0.0491056
-0.0446526
-0.0387568
-0.030858
-0.0218408
-0.0139898
-0.0113575
-0.0125655
-0.0159008
-0.0215314
-0.0288331
-0.0365562
-0.0435461
-0.0491905
-0.0533389
-0.0560456
-0.0574131
-0.0575116
-0.0563926
-0.0541283
-0.0508483
-0.0466644
-0.0414882
-0.0346543
-0.0266432
-0.0187337
-0.0133749
-0.014399
-0.0175135
-0.0227747
-0.0296437
-0.0370176
-0.0438228
-0.0494239
-0.0536062
-0.0563714
-0.0577835
-0.0578928
-0.0567424
-0.0544067
-0.0510661
-0.046947
-0.0422682
-0.036332
-0.0294646
-0.0219347
-0.0146565
-0.015349
-0.0180209
-0.0226956
-0.028946
-0.0358814
-0.0425215
-0.0481691
-0.052489
-0.0553917
-0.056887
-0.0570031
-0.0557786
-0.0533088
-0.0498006
-0.0455438
-0.0411103
-0.0356573
-0.0297168
-0.0224545
-0.0152949
-0.0155265
-0.0174904
-0.0213006
-0.0267342
-0.0331412
-0.039623
-0.0453909
-0.0499531
-0.0530892
-0.0547326
-0.0548824
-0.0535611
-0.0508896
-0.0471188
-0.0426237
-0.0380387
-0.0326572
-0.0277094
-0.019963
-0.0154172
-0.0151383
-0.0161193
-0.0187476
-0.0231363
-0.0289041
-0.0352155
-0.041163
-0.0460684
-0.0495447
-0.0514202
-0.0516409
-0.0502452
-0.0473282
-0.0432087
-0.0383138
-0.0333134
-0.0278101
-0.0240311
-0.0142721
-0.0151429
-0.0144302
-0.0141222
-0.0152162
-0.0183421
-0.023366
-0.0294891
-0.0356597
-0.0409971
-0.044925
-0.0471474
-0.0475411
-0.0461323
-0.0429904
-0.0384739
-0.0330332
-0.0274316
-0.0216235
-0.018154
-0.00397157
-0.0145598
-0.0135401
-0.0116545
-0.0110168
-0.0128043
-0.0170743
-0.0230265
-0.0294518
-0.0352855
-0.0397635
-0.04246
-0.0431562
-0.0418483
-0.0385723
-0.0336463
-0.0274548
-0.0207422
-0.0135675
-0.0072226
0.0156607
-0.0145293
-0.0126262
-0.00868164
-0.00631303
-0.00694704
-0.0106528
-0.0165351
-0.0232473
-0.0296122
-0.0347054
-0.0379922
-0.0391335
-0.038078
-0.0348338
-0.0295459
-0.0222461
-0.0131736
-0.00126222
0.0159773
0.0564608
-0.0117903
-0.0118585
-0.00585948
-0.00198187
-0.00194908
-0.0054744
-0.011462
-0.0184909
-0.0253514
-0.0310081
-0.0348953
-0.03659
-0.035998
-0.0328479
-0.0269884
-0.0176348
-0.00358952
0.0197623
0.0598737
0.129137
-0.0294993
-0.0106979
-0.000800464
0.00281493
0.00219993
-0.0016952
-0.00795797
-0.015301
-0.0225204
-0.0285563
-0.0328183
-0.0348608
-0.0345512
-0.0314748
-0.0249945
-0.0129341
0.00900735
0.0504941
0.122133
0.225457
)
;

boundaryField
{
    movingWall
    {
        type            zeroGradient;
    }
    fixedWalls
    {
        type            zeroGradient;
    }
    frontAndBack
    {
        type            empty;
    }
}


// ************************************************************************* //
