/*--------------------------------*- C++ -*----------------------------------*\
| =========                 |                                                 |
| \\      /  F ield         | OpenFOAM: The Open Source CFD Toolbox           |
|  \\    /   O peration     | Version:  2212                                  |
|   \\  /    A nd           | Website:  www.openfoam.com                      |
|    \\/     M anipulation  |                                                 |
\*---------------------------------------------------------------------------*/
FoamFile
{
    version     2.0;
    format      ascii;
    arch        "LSB;label=32;scalar=64";
    class       volScalarField;
    location    "3.24";
    object      p;
}
// * * * * * * * * * * * * * * * * * * * * * * * * * * * * * * * * * * * * * //

dimensions      [0 2 -2 0 0 0 0];

internalField   nonuniform List<scalar> 
400
(
-8.95141e-09
-0.000147932
-0.000519525
-0.00104097
-0.00168315
-0.00242054
-0.003092
-0.00349311
-0.00345656
-0.00283073
-0.0014675
0.000659862
0.00324923
0.00549819
0.00654775
0.00600989
0.00416941
0.00236627
0.00133864
0.00126223
0.000117016
-5.28206e-05
-0.000360527
-0.000738333
-0.00120779
-0.00183233
-0.00261975
-0.00342278
-0.00393413
-0.00378859
-0.00271875
-0.000737847
0.00173497
0.00398922
0.00517839
0.00486103
0.00330114
0.00160904
0.000833546
0.000911379
0.000520835
0.000261612
-6.81575e-05
-0.000536453
-0.0012976
-0.00248378
-0.00405782
-0.00575443
-0.00712135
-0.00764487
-0.00698508
-0.0052229
-0.00270101
-3.98812e-05
0.00194231
0.00260803
0.00193719
0.000757653
-0.000134843
-0.000146055
0.00110339
0.000708227
0.000184768
-0.000740228
-0.00234466
-0.00472868
-0.00766855
-0.0106831
-0.0131832
-0.0146176
-0.014654
-0.0133269
-0.0108449
-0.0076502
-0.00442957
-0.00192023
-0.000595808
-0.000438374
-0.00102027
-0.00165196
0.00148354
0.000903165
-3.86231e-05
-0.00184462
-0.00478617
-0.00878715
-0.0133465
-0.0177617
-0.0213874
-0.0237621
-0.0246273
-0.0238646
-0.0215879
-0.0180723
-0.0137431
-0.00919826
-0.00522565
-0.00265092
-0.00193062
-0.00372603
0.00116474
0.000359595
-0.00118866
-0.0041349
-0.00861873
-0.0142573
-0.0202306
-0.0256936
-0.0300389
-0.0329489
-0.0342966
-0.0339847
-0.0320861
-0.0287373
-0.0240684
-0.0182907
-0.0119957
-0.0065781
-0.00410536
-0.00619899
-0.000163097
-0.00120517
-0.00342164
-0.0074961
-0.0133506
-0.0202483
-0.0271212
-0.0330912
-0.0376614
-0.0406697
-0.0421265
-0.0420554
-0.0405187
-0.0375769
-0.0331967
-0.0272504
-0.0198464
-0.012212
-0.00750299
-0.00745577
-0.00250196
-0.00372608
-0.00651353
-0.0114574
-0.0182577
-0.0258848
-0.0331358
-0.0391868
-0.0436828
-0.0465892
-0.0480018
-0.0480214
-0.0467271
-0.0441597
-0.0402579
-0.0347718
-0.0274261
-0.0187236
-0.0113972
-0.00770309
-0.00549102
-0.00679589
-0.00995431
-0.015411
-0.0226929
-0.0305889
-0.03786
-0.0437742
-0.048096
-0.0508699
-0.0522282
-0.0522866
-0.0511226
-0.0487885
-0.0452805
-0.0404185
-0.033763
-0.0251258
-0.0161528
-0.00963308
-0.00858367
-0.0098618
-0.0131731
-0.0188003
-0.0261749
-0.0340261
-0.0411437
-0.0468729
-0.0510473
-0.0537381
-0.0550755
-0.0551572
-0.0540507
-0.051823
-0.0485407
-0.044168
-0.0383579
-0.0305454
-0.0216084
-0.0138159
-0.0112734
-0.012453
-0.015712
-0.0212269
-0.0284047
-0.036027
-0.042944
-0.0485327
-0.0526359
-0.0553073
-0.0566543
-0.0567521
-0.0556562
-0.05344
-0.050231
-0.046134
-0.0410502
-0.0343055
-0.0263713
-0.0185126
-0.0132754
-0.0142716
-0.0173129
-0.0224622
-0.0292079
-0.0364761
-0.0432005
-0.0487387
-0.05287
-0.055596
-0.0569851
-0.0570935
-0.0559683
-0.0536842
-0.0504209
-0.0463961
-0.0418169
-0.0359725
-0.0291775
-0.02169
-0.0145545
-0.0152238
-0.0178282
-0.0223974
-0.0285269
-0.0353516
-0.0419019
-0.0474784
-0.0517415
-0.0546018
-0.0560734
-0.05619
-0.0549944
-0.0525827
-0.0491591
-0.0450054
-0.0406798
-0.0353215
-0.0294462
-0.0222209
-0.0151986
-0.0154167
-0.0173245
-0.0210403
-0.0263586
-0.0326517
-0.0390347
-0.0447223
-0.0492215
-0.0523123
-0.053932
-0.0540845
-0.0527985
-0.0501939
-0.0465175
-0.0421353
-0.0376674
-0.0323836
-0.0274865
-0.0197819
-0.0153309
-0.015051
-0.0159948
-0.0185476
-0.022833
-0.028487
-0.0346915
-0.0405485
-0.0453831
-0.0488105
-0.0506631
-0.0508915
-0.0495368
-0.0466965
-0.0426832
-0.0379127
-0.0330383
-0.027636
-0.0238956
-0.014187
-0.0150713
-0.0143681
-0.0140474
-0.0150943
-0.018137
-0.0230527
-0.029063
-0.0351326
-0.0403899
-0.0442636
-0.046462
-0.0468663
-0.0455058
-0.0424508
-0.0380525
-0.0327484
-0.0272809
-0.0215755
-0.0181693
-0.00401537
-0.0145082
-0.0135045
-0.0116344
-0.0109856
-0.0127156
-0.0168875
-0.0227238
-0.0290381
-0.0347809
-0.0391966
-0.0418648
-0.0425712
-0.0413144
-0.0381344
-0.0333377
-0.0272962
-0.0207322
-0.0136786
-0.00742073
0.0154755
-0.0145085
-0.012621
-0.00871692
-0.00637351
-0.00697535
-0.010595
-0.0163615
-0.0229557
-0.0292196
-0.0342412
-0.0374936
-0.0386434
-0.0376404
-0.0344893
-0.0293345
-0.0221983
-0.0132988
-0.00153666
0.0156127
0.0561466
-0.0118016
-0.0118924
-0.00596168
-0.00212663
-0.00207151
-0.00551741
-0.0113894
-0.0182948
-0.0250459
-0.0306231
-0.0344687
-0.0361641
-0.0356173
-0.0325602
-0.0268408
-0.0176591
-0.00380042
0.0193899
0.0594311
0.128762
-0.0295043
-0.0107601
-0.000941283
0.0026319
0.00203667
-0.00178101
-0.00792879
-0.0151462
-0.0222525
-0.0282037
-0.0324185
-0.034457
-0.0341892
-0.0312009
-0.0248498
-0.0129522
0.00880192
0.0501377
0.121727
0.225107
)
;

boundaryField
{
    movingWall
    {
        type            zeroGradient;
    }
    fixedWalls
    {
        type            zeroGradient;
    }
    frontAndBack
    {
        type            empty;
    }
}


// ************************************************************************* //
