/*--------------------------------*- C++ -*----------------------------------*\
| =========                 |                                                 |
| \\      /  F ield         | OpenFOAM: The Open Source CFD Toolbox           |
|  \\    /   O peration     | Version:  2212                                  |
|   \\  /    A nd           | Website:  www.openfoam.com                      |
|    \\/     M anipulation  |                                                 |
\*---------------------------------------------------------------------------*/
FoamFile
{
    version     2.0;
    format      ascii;
    arch        "LSB;label=32;scalar=64";
    class       surfaceScalarField;
    location    "0.695";
    object      phi;
}
// * * * * * * * * * * * * * * * * * * * * * * * * * * * * * * * * * * * * * //

dimensions      [0 3 -1 0 0 0 0];

oriented        oriented;

internalField   nonuniform List<scalar> 
760
(
-3.95512e-08
3.95513e-08
-1.36772e-07
9.72204e-08
-2.57313e-07
1.20542e-07
-3.86776e-07
1.29463e-07
-5.22871e-07
1.36094e-07
-6.6663e-07
1.43759e-07
-8.18476e-07
1.51846e-07
-9.76123e-07
1.57647e-07
-1.13255e-06
1.56429e-07
-1.2737e-06
1.41148e-07
-1.37683e-06
1.03129e-07
-1.41185e-06
3.50215e-08
-1.3434e-06
-6.84501e-08
-1.15384e-06
-1.89559e-07
-8.54896e-07
-2.98948e-07
-5.03304e-07
-3.51592e-07
-1.89229e-07
-3.14075e-07
3.86159e-09
-1.9309e-07
5.22281e-08
-4.83665e-08
5.22286e-08
-1.15303e-07
1.54854e-07
-3.31003e-07
3.1292e-07
-5.88188e-07
3.77727e-07
-8.64375e-07
4.0565e-07
-1.15292e-06
4.24638e-07
-1.45162e-06
4.42455e-07
-1.75666e-06
4.56891e-07
-2.05902e-06
4.60008e-07
-2.34152e-06
4.38924e-07
-2.57644e-06
3.76073e-07
-2.72502e-06
2.5171e-07
-2.7421e-06
5.21012e-08
-2.58242e-06
-2.28129e-07
-2.21998e-06
-5.52e-07
-1.68048e-06
-8.38455e-07
-1.05314e-06
-9.78928e-07
-4.79658e-07
-8.87556e-07
-9.67609e-08
-5.75988e-07
3.40815e-08
-1.79209e-07
8.63101e-08
-1.60869e-07
3.15723e-07
-4.46086e-07
5.98138e-07
-7.80276e-07
7.11917e-07
-1.13683e-06
7.62206e-07
-1.50724e-06
7.95041e-07
-1.88748e-06
8.22701e-07
-2.27153e-06
8.40935e-07
-2.64758e-06
8.36057e-07
-2.99532e-06
7.86671e-07
-3.28364e-06
6.64392e-07
-3.46948e-06
4.37545e-07
-3.5018e-06
8.44236e-08
-3.32098e-06
-4.08951e-07
-2.88576e-06
-9.87216e-07
-2.20892e-06
-1.51529e-06
-1.39105e-06
-1.7968e-06
-6.20358e-07
-1.65825e-06
-1.03858e-07
-1.09249e-06
6.11516e-08
-3.44218e-07
1.47462e-07
-1.82704e-07
4.98427e-07
-5.04077e-07
9.1951e-07
-8.78546e-07
1.08639e-06
-1.27715e-06
1.16081e-06
-1.69141e-06
1.20931e-06
-2.11818e-06
1.24947e-06
-2.5529e-06
1.27565e-06
-2.98623e-06
1.2694e-06
-3.40158e-06
1.20202e-06
-3.77224e-06
1.03506e-06
-4.05722e-06
7.22523e-07
-4.19821e-06
2.25409e-07
-4.1165e-06
-4.90653e-07
-3.71824e-06
-1.38548e-06
-2.96825e-06
-2.26528e-06
-1.95084e-06
-2.81421e-06
-8.96678e-07
-2.71241e-06
-1.29926e-07
-1.85924e-06
1.14334e-07
-5.88478e-07
2.61795e-07
-1.88977e-07
6.87404e-07
-5.23758e-07
1.25429e-06
-9.14994e-07
1.47762e-06
-1.33309e-06
1.5789e-06
-1.77114e-06
1.64737e-06
-2.22925e-06
1.70757e-06
-2.70805e-06
1.75445e-06
-3.20592e-06
1.76727e-06
-3.71711e-06
1.7132e-06
-4.22907e-06
1.54702e-06
-4.71314e-06
1.2066e-06
-5.1022e-06
6.14469e-07
-5.29646e-06
-2.964e-07
-5.09814e-06
-1.5838e-06
-4.38831e-06
-2.97511e-06
-3.19285e-06
-4.00968e-06
-1.72966e-06
-4.1756e-06
-4.3074e-07
-3.15816e-06
1.34567e-07
-1.15378e-06
3.96362e-07
-1.84451e-07
8.71855e-07
-5.16747e-07
1.58659e-06
-9.08654e-07
1.86953e-06
-1.33128e-06
2.00153e-06
-1.78032e-06
2.0964e-06
-2.26094e-06
2.18819e-06
-2.78223e-06
2.27575e-06
-3.35558e-06
2.34062e-06
-3.99431e-06
2.35192e-06
-4.71179e-06
2.2645e-06
-5.50571e-06
2.00052e-06
-6.30445e-06
1.41321e-06
-6.92738e-06
3.2653e-07
-7.09056e-06
-1.42062e-06
-6.56767e-06
-3.49801e-06
-5.32151e-06
-5.25584e-06
-3.44959e-06
-6.04751e-06
-1.35081e-06
-5.25694e-06
-2.27407e-08
-2.48185e-06
3.73621e-07
-1.71757e-07
1.04361e-06
-4.8942e-07
1.90425e-06
-8.69252e-07
2.24936e-06
-1.28365e-06
2.41592e-06
-1.7311e-06
2.54385e-06
-2.22263e-06
2.67972e-06
-2.77769e-06
2.83081e-06
-3.42488e-06
2.98781e-06
-4.20346e-06
3.13051e-06
-5.15911e-06
3.22014e-06
-6.31233e-06
3.15375e-06
-7.57108e-06
2.67196e-06
-8.62304e-06
1.37849e-06
-9.12439e-06
-9.19272e-07
-8.88428e-06
-3.73812e-06
-7.83868e-06
-6.30144e-06
-5.86286e-06
-8.02333e-06
-3.09177e-06
-8.02803e-06
-5.28768e-07
-5.04485e-06
-1.55147e-07
-1.52459e-07
1.19607e-06
-4.45265e-07
2.19706e-06
-8.01295e-07
2.60539e-06
-1.19395e-06
2.80858e-06
-1.62364e-06
2.97354e-06
-2.10634e-06
3.16242e-06
-2.67116e-06
3.39563e-06
-3.36328e-06
3.67992e-06
-4.24519e-06
4.01242e-06
-5.37991e-06
4.35487e-06
-6.76958e-06
4.54341e-06
-8.25562e-06
4.158e-06
-9.50988e-06
2.63276e-06
-1.00953e-05
-3.33811e-07
-1.01691e-05
-3.66434e-06
-9.5887e-06
-6.88186e-06
-8.0833e-06
-9.52873e-06
-5.33524e-06
-1.07761e-05
-1.64229e-06
-8.7378e-06
-1.79743e-06
-1.27944e-07
1.32402e-06
-3.871e-07
2.45621e-06
-7.07942e-07
2.92623e-06
-1.06373e-06
3.16437e-06
-1.45459e-06
3.3644e-06
-1.89812e-06
3.60595e-06
-2.42752e-06
3.92503e-06
-3.09426e-06
4.34667e-06
-3.96445e-06
4.8826e-06
-5.08465e-06
5.47507e-06
-6.40435e-06
5.86311e-06
-7.71677e-06
5.47043e-06
-8.74754e-06
3.66352e-06
-9.38211e-06
3.00765e-07
-9.63176e-06
-3.41469e-06
-9.54406e-06
-6.96956e-06
-8.84922e-06
-1.02236e-05
-6.90869e-06
-1.27166e-05
-3.13445e-06
-1.2512e-05
-4.93188e-06
-1.00205e-07
1.42422e-06
-3.19048e-07
2.67506e-06
-5.94461e-07
3.20165e-06
-8.97887e-07
3.46779e-06
-1.22614e-06
3.69265e-06
-1.5932e-06
3.97302e-06
-2.0269e-06
4.35874e-06
-2.568e-06
4.88776e-06
-3.26092e-06
5.57552e-06
-4.11758e-06
6.33173e-06
-5.06074e-06
6.80627e-06
-5.92254e-06
6.33222e-06
-6.57803e-06
4.31902e-06
-7.12416e-06
8.46896e-07
-7.47344e-06
-3.06541e-06
-7.70499e-06
-6.73802e-06
-7.71545e-06
-1.02131e-05
-6.84725e-06
-1.35848e-05
-4.14491e-06
-1.52144e-05
-9.07679e-06
-7.23575e-08
1.49658e-06
-2.47904e-07
2.85061e-06
-4.70663e-07
3.4244e-06
-7.08682e-07
3.70581e-06
-9.52822e-07
3.93679e-06
-1.20871e-06
4.22891e-06
-1.49061e-06
4.64064e-06
-1.81673e-06
5.21388e-06
-2.20085e-06
5.95964e-06
-2.63354e-06
6.76442e-06
-3.07331e-06
7.24604e-06
-3.46814e-06
6.72705e-06
-3.83325e-06
4.68413e-06
-4.25686e-06
1.27051e-06
-4.6873e-06
-2.63497e-06
-5.13485e-06
-6.29046e-06
-5.62663e-06
-9.72133e-06
-5.63162e-06
-1.35798e-05
-3.91385e-06
-1.69322e-05
-1.29906e-05
-4.90251e-08
1.5456e-06
-1.83923e-07
2.9855e-06
-3.51817e-07
3.5923e-06
-5.16788e-07
3.87078e-06
-6.63296e-07
4.0833e-06
-7.87252e-07
4.35286e-06
-8.87235e-07
4.74062e-06
-9.57157e-07
5.2838e-06
-9.86506e-07
5.98899e-06
-9.60517e-07
6.73843e-06
-9.09103e-07
7.19463e-06
-9.18838e-07
6.73678e-06
-1.06172e-06
4.82701e-06
-1.40816e-06
1.61695e-06
-1.96681e-06
-2.07632e-06
-2.63917e-06
-5.6181e-06
-3.50108e-06
-8.85942e-06
-4.13804e-06
-1.29429e-05
-3.15462e-06
-1.79156e-05
-1.61453e-05
-3.60932e-08
1.5817e-06
-1.4041e-07
3.08982e-06
-2.5824e-07
3.71013e-06
-3.49856e-07
3.9624e-06
-3.95733e-07
4.12917e-06
-3.84988e-07
4.34212e-06
-3.03963e-07
4.65959e-06
-1.2708e-07
5.10692e-06
1.73748e-07
5.68816e-06
5.88019e-07
6.32416e-06
1.06751e-06
6.71514e-06
1.45633e-06
6.34796e-06
1.55809e-06
4.72525e-06
1.2551e-06
1.91994e-06
6.22018e-07
-1.44324e-06
-2.86207e-07
-4.70988e-06
-1.51274e-06
-7.63288e-06
-2.68065e-06
-1.1775e-05
-2.41883e-06
-1.81774e-05
-1.85641e-05
-4.23746e-08
1.62407e-06
-1.34774e-07
3.18222e-06
-2.12188e-07
3.78754e-06
-2.35003e-07
3.98521e-06
-1.85988e-07
4.08016e-06
-5.34488e-08
4.20958e-06
1.81324e-07
4.42482e-06
5.35518e-07
4.75273e-06
1.04733e-06
5.17635e-06
1.74297e-06
5.62852e-06
2.55604e-06
5.90207e-06
3.28043e-06
5.62357e-06
3.62849e-06
4.37719e-06
3.43102e-06
2.11741e-06
2.68693e-06
-6.99151e-07
1.60679e-06
-3.62973e-06
1.75246e-07
-6.20134e-06
-1.3634e-06
-1.02363e-05
-1.71211e-06
-1.78287e-05
-2.02762e-05
-7.90806e-08
1.70315e-06
-1.90103e-07
3.29324e-06
-2.44828e-07
3.84227e-06
-2.05288e-07
3.94567e-06
-6.83909e-08
3.94326e-06
1.68123e-07
3.97306e-06
5.13359e-07
4.07958e-06
9.96357e-07
4.26973e-06
1.64599e-06
4.52671e-06
2.47805e-06
4.79647e-06
3.43576e-06
4.94436e-06
4.3322e-06
4.72713e-06
4.86598e-06
3.84341e-06
4.82257e-06
2.16082e-06
4.12144e-06
1.9786e-09
2.91078e-06
-2.41907e-06
1.28652e-06
-4.57709e-06
-4.5941e-07
-8.4904e-06
-1.17092e-06
-1.71172e-05
-2.14471e-05
-1.60258e-07
1.86341e-06
-3.23695e-07
3.45668e-06
-3.62745e-07
3.88132e-06
-2.66362e-07
3.84929e-06
-5.29836e-08
3.72988e-06
2.67639e-07
3.65244e-06
7.00583e-07
3.64664e-06
1.26316e-06
3.70715e-06
1.9736e-06
3.81628e-06
2.83766e-06
3.93241e-06
3.80857e-06
3.97345e-06
4.74176e-06
3.79394e-06
5.3714e-06
3.21377e-06
5.44547e-06
2.08674e-06
4.8956e-06
5.51857e-07
3.69579e-06
-1.21926e-06
2.08369e-06
-2.96499e-06
3.15292e-07
-6.722e-06
-5.47148e-07
-1.62547e-05
-2.19943e-05
-3.57815e-07
2.22122e-06
-6.91397e-07
3.79026e-06
-6.93296e-07
3.88322e-06
-4.74569e-07
3.63056e-06
-1.45847e-07
3.40116e-06
2.65423e-07
3.24117e-06
7.67947e-07
3.14412e-06
1.37887e-06
3.09622e-06
2.10831e-06
3.08684e-06
2.95555e-06
3.08516e-06
3.87563e-06
3.05337e-06
4.76613e-06
2.90345e-06
5.4162e-06
2.56369e-06
5.59348e-06
1.90946e-06
5.13231e-06
1.01303e-06
4.0973e-06
-1.84243e-07
2.70655e-06
-1.57424e-06
1.36159e-06
-5.37704e-06
2.43618e-07
-1.51368e-05
-2.17507e-05
-3.83065e-07
2.60429e-06
-7.94484e-07
4.20168e-06
-8.89542e-07
3.97828e-06
-7.36987e-07
3.47801e-06
-4.10909e-07
3.07508e-06
3.21932e-08
2.79807e-06
5.82505e-07
2.59381e-06
1.2432e-06
2.43553e-06
2.00278e-06
2.32726e-06
2.85618e-06
2.23176e-06
3.74988e-06
2.15966e-06
4.61934e-06
2.03399e-06
5.31176e-06
1.87128e-06
5.66471e-06
1.55651e-06
5.53177e-06
1.14597e-06
4.93053e-06
4.17001e-07
4.19935e-06
-8.43064e-07
3.24774e-06
-4.42543e-06
1.54525e-06
-1.34343e-05
-2.02054e-05
-3.92089e-06
6.52518e-06
-3.70931e-06
3.99011e-06
-2.44816e-06
2.71712e-06
-1.20466e-06
2.2345e-06
-6.07401e-08
1.93116e-06
1.05443e-06
1.6829e-06
2.15436e-06
1.49387e-06
3.25667e-06
1.33322e-06
4.35472e-06
1.22921e-06
5.45881e-06
1.12768e-06
6.54341e-06
1.07506e-06
7.58539e-06
9.92003e-07
8.50579e-06
9.50877e-07
9.23436e-06
8.27937e-07
9.70349e-06
6.76835e-07
9.82557e-06
2.94922e-07
9.65353e-06
-6.71018e-07
8.93775e-06
-3.70965e-06
5.17308e-06
-9.6696e-06
-1.50323e-05
6.52518e-06
1.05153e-05
1.32324e-05
1.54669e-05
1.73981e-05
1.9081e-05
2.05748e-05
2.19081e-05
2.31373e-05
2.4265e-05
2.534e-05
2.6332e-05
2.72829e-05
2.81108e-05
2.87877e-05
2.90826e-05
2.84116e-05
2.47019e-05
1.50323e-05
)
;

boundaryField
{
    movingWall
    {
        type            calculated;
        value           uniform 0;
    }
    fixedWalls
    {
        type            calculated;
        value           uniform 0;
    }
    frontAndBack
    {
        type            empty;
        value           nonuniform List<scalar> 0();
    }
}


// ************************************************************************* //
