/*--------------------------------*- C++ -*----------------------------------*\
| =========                 |                                                 |
| \\      /  F ield         | OpenFOAM: The Open Source CFD Toolbox           |
|  \\    /   O peration     | Version:  2212                                  |
|   \\  /    A nd           | Website:  www.openfoam.com                      |
|    \\/     M anipulation  |                                                 |
\*---------------------------------------------------------------------------*/
FoamFile
{
    version     2.0;
    format      ascii;
    arch        "LSB;label=32;scalar=64";
    class       surfaceScalarField;
    location    "2.195";
    object      phi;
}
// * * * * * * * * * * * * * * * * * * * * * * * * * * * * * * * * * * * * * //

dimensions      [0 3 -1 0 0 0 0];

oriented        oriented;

internalField   nonuniform List<scalar> 
760
(
1.12561e-07
-1.12561e-07
2.00592e-07
-8.80307e-08
1.96301e-07
4.29095e-09
7.74345e-08
1.18866e-07
-1.91814e-07
2.69248e-07
-6.63265e-07
4.71452e-07
-1.36583e-06
7.02564e-07
-2.2406e-06
8.74769e-07
-3.12608e-06
8.85477e-07
-3.81598e-06
6.89905e-07
-4.1439e-06
3.27921e-07
-4.01366e-06
-1.30247e-07
-3.35439e-06
-6.59264e-07
-2.26622e-06
-1.08817e-06
-9.59323e-07
-1.3069e-06
2.22255e-07
-1.18158e-06
9.26612e-07
-7.04357e-07
9.12121e-07
1.44912e-08
4.13442e-07
4.9868e-07
4.13442e-07
5.64415e-08
-1.69002e-07
-4.25869e-08
1.09983e-08
-3.87844e-07
3.49548e-07
-1.06384e-06
7.94859e-07
-2.12048e-06
1.32589e-06
-3.51518e-06
1.86615e-06
-5.06335e-06
2.25074e-06
-6.49762e-06
2.30903e-06
-7.5906e-06
1.97846e-06
-8.2114e-06
1.3107e-06
-8.30183e-06
4.18355e-07
-7.82639e-06
-6.05684e-07
-6.81391e-06
-1.67175e-06
-5.2954e-06
-2.60667e-06
-3.40784e-06
-3.19446e-06
-1.43915e-06
-3.15027e-06
1.12666e-07
-2.25617e-06
7.64508e-07
-6.3735e-07
4.78378e-07
7.84809e-07
8.9182e-07
-1.67273e-07
-1.72903e-09
-6.42488e-07
4.86214e-07
-1.50533e-06
1.21239e-06
-2.80475e-06
2.09429e-06
-4.47615e-06
2.99729e-06
-6.3001e-06
3.69009e-06
-7.99798e-06
3.94863e-06
-9.3729e-06
3.68395e-06
-1.03412e-05
2.94671e-06
-1.08773e-05
1.8468e-06
-1.09378e-05
4.78929e-07
-1.05412e-05
-1.00228e-06
-9.68487e-06
-2.52811e-06
-8.32065e-06
-3.97089e-06
-6.43109e-06
-5.08403e-06
-4.11495e-06
-5.46641e-06
-1.75128e-06
-4.61984e-06
-8.44153e-08
-2.30421e-06
2.80151e-07
4.20243e-07
1.17197e-06
-4.51215e-07
4.49486e-07
-1.38523e-06
1.42023e-06
-2.7315e-06
2.55865e-06
-4.45025e-06
3.81304e-06
-6.36039e-06
4.90743e-06
-8.20014e-06
5.52985e-06
-9.75799e-06
5.50648e-06
-1.09478e-05
4.87378e-06
-1.17719e-05
3.77077e-06
-1.2252e-05
2.32695e-06
-1.23739e-05
6.00793e-07
-1.21753e-05
-1.20086e-06
-1.16375e-05
-3.06597e-06
-1.06631e-05
-4.94521e-06
-9.13118e-06
-6.61599e-06
-6.92616e-06
-7.67143e-06
-4.10794e-06
-7.43806e-06
-1.28043e-06
-5.13172e-06
1.15178e-07
-9.75364e-07
1.28715e-06
-7.37932e-07
1.18742e-06
-2.03118e-06
2.71348e-06
-3.66647e-06
4.19394e-06
-5.51674e-06
5.66331e-06
-7.35635e-06
6.74703e-06
-8.96415e-06
7.13765e-06
-1.02251e-05
6.76743e-06
-1.11286e-05
5.77729e-06
-1.17161e-05
4.35828e-06
-1.20489e-05
2.6597e-06
-1.22002e-05
7.52111e-07
-1.21816e-05
-1.21942e-06
-1.19826e-05
-3.26497e-06
-1.15242e-05
-5.40364e-06
-1.06286e-05
-7.51153e-06
-9.0222e-06
-9.27788e-06
-6.43828e-06
-1.0022e-05
-3.00708e-06
-8.56292e-06
-2.4152e-07
-3.74092e-06
1.04563e-06
-9.13165e-07
2.10058e-06
-2.38179e-06
4.18211e-06
-4.069e-06
5.88115e-06
-5.79936e-06
7.39366e-06
-7.36793e-06
8.31561e-06
-8.62095e-06
8.39067e-06
-9.51111e-06
7.65759e-06
-1.00728e-05
6.33895e-06
-1.03795e-05
4.66496e-06
-1.05238e-05
2.80404e-06
-1.0621e-05
8.49268e-07
-1.06914e-05
-1.14899e-06
-1.07362e-05
-3.22022e-06
-1.07299e-05
-5.40986e-06
-1.05205e-05
-7.72101e-06
-9.78408e-06
-1.00142e-05
-8.04725e-06
-1.17588e-05
-4.9406e-06
-1.16696e-05
-1.07575e-06
-7.60577e-06
-3.01197e-08
-9.28645e-07
3.02923e-06
-2.36743e-06
5.62089e-06
-3.90983e-06
7.42356e-06
-5.37089e-06
8.85472e-06
-6.59293e-06
9.53765e-06
-7.48227e-06
9.28001e-06
-8.03702e-06
8.21234e-06
-8.31881e-06
6.62075e-06
-8.42017e-06
4.76632e-06
-8.43953e-06
2.82341e-06
-8.46803e-06
8.77766e-07
-8.54378e-06
-1.07324e-06
-8.68482e-06
-3.07918e-06
-8.9056e-06
-5.18908e-06
-9.14585e-06
-7.48076e-06
-9.16356e-06
-9.99655e-06
-8.43927e-06
-1.24831e-05
-6.25112e-06
-1.38577e-05
-2.27307e-06
-1.15838e-05
-2.30319e-06
-7.84013e-07
3.81324e-06
-2.0271e-06
6.86398e-06
-3.30418e-06
8.70064e-06
-4.44062e-06
9.99115e-06
-5.32767e-06
1.04247e-05
-5.91954e-06
9.87189e-06
-6.24244e-06
8.53525e-06
-6.36924e-06
6.74755e-06
-6.39136e-06
4.78844e-06
-6.39046e-06
2.8225e-06
-6.41531e-06
9.0262e-07
-6.48815e-06
-1.0004e-06
-6.63453e-06
-2.93279e-06
-6.89147e-06
-4.93214e-06
-7.27686e-06
-7.09537e-06
-7.6902e-06
-9.58321e-06
-7.70222e-06
-1.24711e-05
-6.49646e-06
-1.50635e-05
-3.39187e-06
-1.46884e-05
-5.69506e-06
-5.24116e-07
4.33736e-06
-1.46516e-06
7.80502e-06
-2.42275e-06
9.65822e-06
-3.23367e-06
1.08021e-05
-3.83168e-06
1.10227e-05
-4.20594e-06
1.02461e-05
-4.39542e-06
8.72473e-06
-4.46805e-06
6.82017e-06
-4.49732e-06
4.81771e-06
-4.53508e-06
2.86026e-06
-4.59877e-06
9.66301e-07
-4.69327e-06
-9.05902e-07
-4.83362e-06
-2.79244e-06
-5.05473e-06
-4.71102e-06
-5.42175e-06
-6.72835e-06
-5.94667e-06
-9.05829e-06
-6.38466e-06
-1.20331e-05
-5.97203e-06
-1.54761e-05
-3.79444e-06
-1.6866e-05
-9.4895e-06
-1.95771e-07
4.53313e-06
-7.8102e-07
8.39027e-06
-1.40328e-06
1.02805e-05
-1.90998e-06
1.13088e-05
-2.26426e-06
1.1377e-05
-2.47851e-06
1.04604e-05
-2.59264e-06
8.83886e-06
-2.65751e-06
6.88504e-06
-2.71939e-06
4.87959e-06
-2.80538e-06
2.94625e-06
-2.9193e-06
1.08022e-06
-3.05711e-06
-7.68091e-07
-3.22027e-06
-2.62929e-06
-3.42672e-06
-4.50457e-06
-3.7415e-06
-6.41357e-06
-4.25758e-06
-8.54221e-06
-4.90189e-06
-1.13888e-05
-5.03327e-06
-1.53447e-05
-3.48993e-06
-1.84094e-05
-1.29794e-05
1.35157e-07
4.39797e-06
-6.58805e-08
8.59131e-06
-3.68345e-07
1.0583e-05
-5.99884e-07
1.15403e-05
-7.38778e-07
1.15159e-05
-8.10791e-07
1.05324e-05
-8.55092e-07
8.88316e-06
-9.0762e-07
6.93757e-06
-9.88811e-07
4.96079e-06
-1.10544e-06
3.06289e-06
-1.25748e-06
1.23225e-06
-1.44357e-06
-5.81995e-07
-1.6626e-06
-2.41026e-06
-1.91283e-06
-4.25434e-06
-2.23446e-06
-6.09194e-06
-2.73844e-06
-8.03823e-06
-3.48164e-06
-1.06456e-05
-3.98246e-06
-1.48439e-05
-2.99434e-06
-1.93975e-05
-1.59738e-05
4.09976e-07
3.98799e-06
5.82053e-07
8.41923e-06
6.27527e-07
1.05375e-05
6.80705e-07
1.14871e-05
7.57188e-07
1.14394e-05
8.24665e-07
1.04649e-05
8.53099e-07
8.85473e-06
8.28795e-07
6.96187e-06
7.51219e-07
5.03836e-06
6.25648e-07
3.18846e-06
4.51448e-07
1.40645e-06
2.23623e-07
-3.5417e-07
-5.4367e-08
-2.13227e-06
-3.98151e-07
-3.91056e-06
-8.10574e-07
-5.67952e-06
-1.35306e-06
-7.49574e-06
-2.18035e-06
-9.81829e-06
-2.96185e-06
-1.40624e-05
-2.46631e-06
-1.9893e-05
-1.84401e-05
6.09129e-07
3.37887e-06
1.12527e-06
7.90309e-06
1.48878e-06
1.0174e-05
1.82503e-06
1.11509e-05
2.13751e-06
1.11269e-05
2.37801e-06
1.02244e-05
2.5191e-06
8.71363e-06
2.56205e-06
6.91893e-06
2.52167e-06
5.07874e-06
2.40997e-06
3.30016e-06
2.22655e-06
1.58987e-06
1.9514e-06
-7.90142e-08
1.59209e-06
-1.77295e-06
1.14446e-06
-3.46293e-06
6.03093e-07
-5.13815e-06
-9.38793e-08
-6.79877e-06
-9.98442e-07
-8.91372e-06
-1.9852e-06
-1.30756e-05
-1.95739e-06
-1.99208e-05
-2.03975e-05
6.90602e-07
2.68826e-06
1.48798e-06
7.10571e-06
2.15643e-06
9.50552e-06
2.7804e-06
1.05269e-05
3.35493e-06
1.05524e-05
3.81932e-06
9.76005e-06
4.13456e-06
8.39839e-06
4.29998e-06
6.75351e-06
4.33566e-06
5.04306e-06
4.25978e-06
3.37604e-06
4.07309e-06
1.77655e-06
3.76779e-06
2.2629e-07
3.3261e-06
-1.33127e-06
2.75062e-06
-2.88745e-06
2.04098e-06
-4.42851e-06
1.21125e-06
-5.96904e-06
1.53738e-07
-7.85621e-06
-1.07404e-06
-1.18479e-05
-1.48301e-06
-1.95118e-05
-2.18805e-05
6.28214e-07
2.06005e-06
1.57673e-06
6.15719e-06
2.49723e-06
8.58503e-06
3.41265e-06
9.61149e-06
4.28608e-06
9.67895e-06
5.03606e-06
9.01008e-06
5.59986e-06
7.83459e-06
5.96157e-06
6.3918e-06
6.13519e-06
4.86944e-06
6.14019e-06
3.37104e-06
5.98228e-06
1.93447e-06
5.65128e-06
5.57286e-07
5.12801e-06
-8.07999e-07
4.4185e-06
-2.17794e-06
3.51988e-06
-3.52989e-06
2.46605e-06
-4.91522e-06
1.20363e-06
-6.59379e-06
-2.73768e-07
-1.03705e-05
-1.0025e-06
-1.87831e-05
-2.2883e-05
4.37027e-07
1.62302e-06
1.38261e-06
5.21161e-06
2.53585e-06
7.43179e-06
3.75865e-06
8.38868e-06
4.96293e-06
8.47467e-06
6.03948e-06
7.93353e-06
6.90088e-06
6.97319e-06
7.5123e-06
5.78039e-06
7.87443e-06
4.50731e-06
8.00133e-06
3.24414e-06
7.90052e-06
2.03527e-06
7.57297e-06
8.84839e-07
6.97563e-06
-2.10662e-07
6.13334e-06
-1.33565e-06
5.03618e-06
-2.43272e-06
3.73711e-06
-3.61615e-06
2.28692e-06
-5.1436e-06
7.25285e-07
-8.80883e-06
-2.57058e-07
-1.78008e-05
-2.314e-05
6.82257e-08
1.5548e-06
7.21357e-07
4.55848e-06
1.97063e-06
6.18251e-06
3.49678e-06
6.86254e-06
5.08518e-06
6.88628e-06
6.55303e-06
6.46568e-06
7.77953e-06
5.74668e-06
8.71377e-06
4.84615e-06
9.33562e-06
3.88546e-06
9.6517e-06
2.92806e-06
9.66191e-06
2.02506e-06
9.37428e-06
1.17247e-06
8.77555e-06
3.88064e-07
7.84204e-06
-4.02141e-07
6.60737e-06
-1.19805e-06
5.11935e-06
-2.12813e-06
3.53802e-06
-3.56227e-06
2.00468e-06
-7.27549e-06
5.58906e-07
-1.6355e-05
-2.25811e-05
-4.6779e-07
2.02259e-06
5.2527e-08
4.03816e-06
1.30519e-06
4.92985e-06
3.07483e-06
5.09289e-06
5.00048e-06
4.96062e-06
6.81258e-06
4.65358e-06
8.3613e-06
4.19797e-06
9.58723e-06
3.62022e-06
1.04546e-05
3.01812e-06
1.09727e-05
2.40994e-06
1.11405e-05
1.85722e-06
1.09797e-05
1.33331e-06
1.04946e-05
8.73179e-07
9.69277e-06
3.99666e-07
8.58995e-06
-9.52227e-08
7.23257e-06
-7.7075e-07
5.82299e-06
-2.1527e-06
4.20527e-06
-5.65777e-06
1.94881e-06
-1.40985e-05
-2.06323e-05
-4.12942e-06
6.15201e-06
-3.66045e-06
3.56919e-06
-1.47962e-06
2.74902e-06
1.04908e-06
2.5642e-06
3.53796e-06
2.47174e-06
5.87634e-06
2.3152e-06
7.96257e-06
2.11173e-06
9.73116e-06
1.85163e-06
1.11507e-05
1.59859e-06
1.22358e-05
1.32486e-06
1.29951e-05
1.0979e-06
1.34677e-05
8.60674e-07
1.36493e-05
6.91594e-07
1.3564e-05
4.85009e-07
1.31693e-05
2.99465e-07
1.24858e-05
-8.73099e-08
1.15527e-05
-1.21952e-06
9.93911e-06
-4.04423e-06
5.56532e-06
-9.72474e-06
-1.5067e-05
6.15201e-06
9.7212e-06
1.24702e-05
1.50344e-05
1.75062e-05
1.98214e-05
2.19331e-05
2.37847e-05
2.53833e-05
2.67082e-05
2.78061e-05
2.86667e-05
2.93583e-05
2.98433e-05
3.01428e-05
3.00555e-05
2.8836e-05
2.47918e-05
1.5067e-05
)
;

boundaryField
{
    movingWall
    {
        type            calculated;
        value           uniform 0;
    }
    fixedWalls
    {
        type            calculated;
        value           uniform 0;
    }
    frontAndBack
    {
        type            empty;
        value           nonuniform List<scalar> 0();
    }
}


// ************************************************************************* //
