/*--------------------------------*- C++ -*----------------------------------*\
| =========                 |                                                 |
| \\      /  F ield         | OpenFOAM: The Open Source CFD Toolbox           |
|  \\    /   O peration     | Version:  2212                                  |
|   \\  /    A nd           | Website:  www.openfoam.com                      |
|    \\/     M anipulation  |                                                 |
\*---------------------------------------------------------------------------*/
FoamFile
{
    version     2.0;
    format      ascii;
    arch        "LSB;label=32;scalar=64";
    class       volScalarField;
    location    "4.85";
    object      p;
}
// * * * * * * * * * * * * * * * * * * * * * * * * * * * * * * * * * * * * * //

dimensions      [0 2 -2 0 0 0 0];

internalField   nonuniform List<scalar> 
400
(
7.49854e-07
-0.00582871
-0.0129671
-0.0184196
-0.0204373
-0.0182438
-0.0117793
-0.00148911
0.011832
0.027144
0.0432394
0.0588182
0.0725739
0.0833038
0.0900481
0.0922623
0.0900211
0.0842391
0.0768758
0.0710623
0.00577737
-0.000222228
-0.00580836
-0.00954723
-0.0106038
-0.00843776
-0.00297511
0.00546888
0.0162976
0.0287065
0.0417447
0.054381
0.0655816
0.0744052
0.0801156
0.082311
0.0810725
0.07705
0.0712692
0.0653129
0.0133312
0.00502948
-0.000999767
-0.0044278
-0.00527778
-0.00326892
0.00159725
0.0090224
0.0184968
0.029344
0.0407602
0.0518646
0.0617636
0.0696316
0.0748022
0.0768733
0.0758368
0.0720809
0.0658005
0.0575304
0.0201354
0.0086917
0.00122137
-0.00267323
-0.00372699
-0.0018903
0.0027262
0.00977942
0.0187752
0.0290898
0.0399868
0.0506489
0.0602279
0.067911
0.0729983
0.0749966
0.0737609
0.0694511
0.0615978
0.0500973
0.0244979
0.00976884
0.000585307
-0.00399158
-0.00530708
-0.00351232
0.00116967
0.00832943
0.0174568
0.0279439
0.0390798
0.0500647
0.0600437
0.06816
0.0736213
0.0757927
0.074364
0.0692847
0.0595204
0.0445318
0.0251737
0.00714573
-0.00380647
-0.0090618
-0.0105169
-0.00850491
-0.00336185
0.00442432
0.0143082
0.0256738
0.0378086
0.0498981
0.0610429
0.070298
0.0767295
0.0795118
0.0781338
0.0723284
0.0605341
0.0418847
0.0210892
-0.000266758
-0.012939
-0.0187139
-0.0200345
-0.0174188
-0.0113233
-0.00232476
0.00898532
0.0219711
0.0359045
0.0499392
0.063107
0.0743401
0.0825167
0.0865643
0.0857156
0.0794419
0.0656152
0.0430664
0.0111383
-0.0136227
-0.0278796
-0.0338588
-0.0346081
-0.0308622
-0.0232177
-0.0123502
0.00109978
0.0164788
0.0330474
0.0499285
0.0660783
0.0802848
0.0911956
0.0974249
0.0978651
0.0916309
0.0758911
0.0491113
-0.00597177
-0.0342711
-0.0498747
-0.0555532
-0.0550948
-0.0495193
-0.0395983
-0.0261182
-0.00976211
0.00881794
0.0288959
0.0495884
0.0697924
0.0881495
0.103042
0.112696
0.115545
0.110187
0.0928292
0.0614063
-0.0318618
-0.0638809
-0.0804217
-0.0850119
-0.0824248
-0.074083
-0.0609856
-0.0440414
-0.0239564
-0.00134188
0.0231406
0.048656
0.0740906
0.0979673
0.118391
0.133121
0.139984
0.136813
0.118436
0.0819288
-0.0686721
-0.104608
-0.121349
-0.123595
-0.11752
-0.105131
-0.0877229
-0.0663302
-0.0416418
-0.0141605
0.0156006
0.0469483
0.0788508
0.109789
0.137619
0.159581
0.172722
0.173773
0.155516
0.113566
-0.119407
-0.159362
-0.17492
-0.172762
-0.161153
-0.142933
-0.119764
-0.0927816
-0.0625821
-0.0294524
0.00636836
0.0444687
0.0840503
0.123698
0.161131
0.193081
0.215663
0.224072
0.208046
0.160628
-0.188633
-0.232246
-0.243943
-0.233952
-0.213699
-0.187159
-0.156377
-0.122506
-0.0859023
-0.0464766
-0.00401896
0.0415343
0.0898376
0.139825
0.189314
0.234685
0.27107
0.29166
0.281738
0.229771
-0.283979
-0.329309
-0.331836
-0.308284
-0.274713
-0.236444
-0.195769
-0.153614
-0.109844
-0.0637493
-0.014442
0.0388593
0.0965501
0.158272
0.22237
0.285284
0.341393
0.381571
0.38491
0.33183
-0.419323
-0.459675
-0.442354
-0.395796
-0.342133
-0.287743
-0.234619
-0.182933
-0.131613
-0.0789886
-0.0232176
0.0374717
0.10455
0.178834
0.259858
0.344966
0.428612
0.499696
0.529671
0.485388
-0.620535
-0.636747
-0.57868
-0.494196
-0.411244
-0.335661
-0.267783
-0.205981
-0.14754
-0.0893861
-0.0284292
0.0383452
0.113804
0.200468
0.299972
0.412022
0.533026
0.651772
0.732768
0.722392
-0.935927
-0.878518
-0.741744
-0.597951
-0.474395
-0.372662
-0.288871
-0.217765
-0.153956
-0.0924666
-0.0287201
0.0416929
0.123261
0.220715
0.338923
0.482152
0.651994
0.841339
1.01527
1.0975
-1.47643
-1.20663
-0.920506
-0.69139
-0.517307
-0.387546
-0.290063
-0.213339
-0.148126
-0.087218
-0.0245802
0.0454549
0.128935
0.233068
0.367101
0.542676
0.77129
1.05932
1.40328
1.73014
-2.53965
-1.63055
-1.04444
-0.710961
-0.495753
-0.352095
-0.254533
-0.183585
-0.126172
-0.0735976
-0.0192716
0.0427843
0.11921
0.21878
0.35481
0.547981
0.82639
1.23658
1.91167
2.92419
-4.36667
-2.04464
-0.973544
-0.563183
-0.357848
-0.240149
-0.170122
-0.123785
-0.0874836
-0.0535127
-0.016657
0.027658
0.0846048
0.161727
0.272409
0.442096
0.718216
1.22571
2.41103
4.84853
)
;

boundaryField
{
    movingWall
    {
        type            zeroGradient;
    }
    fixedWalls
    {
        type            zeroGradient;
    }
    frontAndBack
    {
        type            empty;
    }
}


// ************************************************************************* //
