/*--------------------------------*- C++ -*----------------------------------*\
| =========                 |                                                 |
| \\      /  F ield         | OpenFOAM: The Open Source CFD Toolbox           |
|  \\    /   O peration     | Version:  2212                                  |
|   \\  /    A nd           | Website:  www.openfoam.com                      |
|    \\/     M anipulation  |                                                 |
\*---------------------------------------------------------------------------*/
FoamFile
{
    version     2.0;
    format      ascii;
    arch        "LSB;label=32;scalar=64";
    class       volScalarField;
    location    "3.73";
    object      p;
}
// * * * * * * * * * * * * * * * * * * * * * * * * * * * * * * * * * * * * * //

dimensions      [0 2 -2 0 0 0 0];

internalField   nonuniform List<scalar> 
400
(
1.16649e-06
-0.00582801
-0.0129664
-0.0184189
-0.0204366
-0.018243
-0.0117785
-0.00148827
0.0118328
0.0271447
0.0432401
0.0588189
0.0725747
0.0833046
0.090049
0.0922631
0.0900219
0.0842398
0.0768765
0.071063
0.00577809
-0.000221459
-0.00580759
-0.00954648
-0.0106031
-0.008437
-0.00297431
0.00546972
0.0162985
0.0287073
0.0417455
0.0543817
0.0655823
0.074406
0.0801164
0.0823119
0.0810733
0.0770508
0.07127
0.0653136
0.0133319
0.00503028
-0.000998961
-0.00442701
-0.00527704
-0.0032682
0.00159799
0.00902319
0.0184977
0.0293449
0.0407611
0.0518654
0.0617643
0.0696323
0.074803
0.0768741
0.0758376
0.0720818
0.0658013
0.0575312
0.0201361
0.00869249
0.0012222
-0.0026724
-0.0037262
-0.00188957
0.00272691
0.00978016
0.018776
0.0290907
0.0399876
0.0506497
0.0602287
0.0679117
0.072999
0.0749974
0.0737617
0.0694519
0.0615987
0.0500981
0.0244986
0.0097696
0.000586118
-0.00399073
-0.00530624
-0.00351153
0.00117039
0.00833013
0.0174575
0.0279447
0.0390806
0.0500656
0.0600446
0.0681608
0.0736221
0.0757934
0.0743647
0.0692855
0.0595212
0.0445326
0.0251744
0.00714646
-0.0038057
-0.00906098
-0.0105161
-0.00850406
-0.00336107
0.00442503
0.0143089
0.0256746
0.0378094
0.049899
0.0610438
0.0702988
0.0767303
0.0795125
0.0781345
0.0723292
0.0605349
0.0418855
0.02109
-0.000266023
-0.0129382
-0.0187131
-0.0200337
-0.0174179
-0.0113225
-0.00232397
0.00898603
0.0219717
0.0359052
0.04994
0.0631078
0.074341
0.0825175
0.0865651
0.0857163
0.0794427
0.0656159
0.0430672
0.0111392
-0.013622
-0.0278789
-0.0338581
-0.0346074
-0.0308614
-0.0232168
-0.0123493
0.00110057
0.0164795
0.0330481
0.0499292
0.066079
0.0802856
0.0911964
0.0974257
0.0978659
0.0916317
0.0758919
0.049112
-0.0059709
-0.0342703
-0.049874
-0.0555525
-0.055094
-0.0495185
-0.0395974
-0.0261173
-0.00976124
0.00881873
0.0288966
0.0495891
0.0697932
0.0881503
0.103043
0.112697
0.115546
0.110188
0.0928299
0.0614071
-0.031861
-0.06388
-0.0804209
-0.0850112
-0.0824241
-0.0740823
-0.0609848
-0.0440406
-0.0239555
-0.00134102
0.0231414
0.0486567
0.0740913
0.097968
0.118392
0.133122
0.139984
0.136814
0.118437
0.0819295
-0.0686713
-0.104607
-0.121348
-0.123594
-0.117519
-0.105131
-0.0877222
-0.0663294
-0.041641
-0.0141596
0.0156015
0.0469491
0.0788516
0.109789
0.13762
0.159582
0.172723
0.173774
0.155516
0.113567
-0.119406
-0.159361
-0.174919
-0.172761
-0.161152
-0.142933
-0.119763
-0.0927809
-0.0625813
-0.0294515
0.00636923
0.0444696
0.0840511
0.123699
0.161132
0.193082
0.215664
0.224073
0.208047
0.160629
-0.188632
-0.232246
-0.243942
-0.233951
-0.213698
-0.187158
-0.156376
-0.122505
-0.0859016
-0.0464759
-0.00401814
0.0415351
0.0898384
0.139826
0.189315
0.234685
0.271071
0.291661
0.281739
0.229772
-0.283978
-0.329308
-0.331835
-0.308283
-0.274712
-0.236443
-0.195768
-0.153613
-0.109843
-0.0637486
-0.0144413
0.0388601
0.0965509
0.158273
0.222371
0.285285
0.341394
0.381572
0.384911
0.331831
-0.419322
-0.459674
-0.442353
-0.395795
-0.342132
-0.287742
-0.234619
-0.182933
-0.131612
-0.0789879
-0.0232169
0.0374724
0.10455
0.178835
0.259858
0.344967
0.428613
0.499697
0.529672
0.485389
-0.620534
-0.636746
-0.57868
-0.494195
-0.411243
-0.33566
-0.267783
-0.20598
-0.147539
-0.0893853
-0.0284284
0.0383459
0.113804
0.200469
0.299973
0.412023
0.533027
0.651773
0.732769
0.722393
-0.935926
-0.878517
-0.741744
-0.59795
-0.474395
-0.372661
-0.28887
-0.217764
-0.153955
-0.0924658
-0.0287192
0.0416937
0.123261
0.220716
0.338924
0.482153
0.651995
0.84134
1.01527
1.0975
-1.47642
-1.20663
-0.920505
-0.691389
-0.517306
-0.387545
-0.290063
-0.213339
-0.148125
-0.0872172
-0.0245793
0.0454557
0.128936
0.233069
0.367101
0.542676
0.771291
1.05932
1.40329
1.73014
-2.53965
-1.63055
-1.04444
-0.71096
-0.495752
-0.352095
-0.254532
-0.183585
-0.126171
-0.0735968
-0.0192708
0.0427851
0.11921
0.218781
0.35481
0.547982
0.826391
1.23658
1.91168
2.92419
-4.36667
-2.04464
-0.973544
-0.563182
-0.357848
-0.240148
-0.170121
-0.123784
-0.0874829
-0.053512
-0.0166562
0.0276588
0.0846056
0.161728
0.272409
0.442097
0.718217
1.22571
2.41103
4.84853
)
;

boundaryField
{
    movingWall
    {
        type            zeroGradient;
    }
    fixedWalls
    {
        type            zeroGradient;
    }
    frontAndBack
    {
        type            empty;
    }
}


// ************************************************************************* //
