/*--------------------------------*- C++ -*----------------------------------*\
| =========                 |                                                 |
| \\      /  F ield         | OpenFOAM: The Open Source CFD Toolbox           |
|  \\    /   O peration     | Version:  2212                                  |
|   \\  /    A nd           | Website:  www.openfoam.com                      |
|    \\/     M anipulation  |                                                 |
\*---------------------------------------------------------------------------*/
FoamFile
{
    version     2.0;
    format      ascii;
    arch        "LSB;label=32;scalar=64";
    class       surfaceScalarField;
    location    "1.725";
    object      phi;
}
// * * * * * * * * * * * * * * * * * * * * * * * * * * * * * * * * * * * * * //

dimensions      [0 3 -1 0 0 0 0];

oriented        oriented;

internalField   nonuniform List<scalar> 
760
(
7.094e-08
-7.09394e-08
1.07671e-07
-3.67307e-08
7.88723e-08
2.87986e-08
-3.32374e-08
1.1211e-07
-2.6114e-07
2.27903e-07
-6.46347e-07
3.85207e-07
-1.21475e-06
5.68407e-07
-1.93389e-06
7.19133e-07
-2.68727e-06
7.5338e-07
-3.30419e-06
6.16927e-07
-3.6272e-06
3.23011e-07
-3.56629e-06
-6.09126e-08
-3.03084e-06
-5.35457e-07
-2.10358e-06
-9.27255e-07
-9.66421e-07
-1.13716e-06
7.93041e-08
-1.04573e-06
7.36292e-07
-6.56988e-07
7.62814e-07
-2.65214e-08
3.553e-07
4.07514e-07
3.553e-07
-4.26874e-09
-6.66706e-08
-1.40921e-07
9.99218e-08
-4.55092e-07
3.4297e-07
-1.0097e-06
6.66716e-07
-1.86058e-06
1.07879e-06
-3.00356e-06
1.52818e-06
-4.32407e-06
1.88892e-06
-5.61132e-06
2.00638e-06
-6.64675e-06
1.78882e-06
-7.27961e-06
1.24978e-06
-7.43601e-06
4.79409e-07
-7.06613e-06
-4.30791e-07
-6.19446e-06
-1.40712e-06
-4.84733e-06
-2.27439e-06
-3.15163e-06
-2.83286e-06
-1.37136e-06
-2.826e-06
2.96762e-08
-2.05802e-06
6.52766e-07
-6.49611e-07
4.21496e-07
6.38784e-07
7.76796e-07
-1.77246e-07
1.10576e-07
-6.15316e-07
5.37992e-07
-1.33074e-06
1.05839e-06
-2.38391e-06
1.71989e-06
-3.77174e-06
2.46661e-06
-5.36279e-06
3.11924e-06
-6.92961e-06
3.45574e-06
-8.26011e-06
3.33688e-06
-9.23639e-06
2.7651e-06
-9.81063e-06
1.82402e-06
-9.94328e-06
6.12053e-07
-9.6221e-06
-7.51965e-07
-8.8593e-06
-2.16993e-06
-7.6142e-06
-3.51949e-06
-5.87585e-06
-4.57121e-06
-3.74968e-06
-4.95217e-06
-1.58717e-06
-4.22053e-06
-7.50236e-08
-2.16176e-06
2.6517e-07
2.98591e-07
1.04197e-06
-3.94869e-07
5.05445e-07
-1.17331e-06
1.31643e-06
-2.27494e-06
2.16001e-06
-3.71176e-06
3.15672e-06
-5.39116e-06
4.14601e-06
-7.10712e-06
4.8352e-06
-8.64199e-06
4.99061e-06
-9.86449e-06
4.55938e-06
-1.07404e-05
3.64102e-06
-1.12776e-05
2.3612e-06
-1.14616e-05
7.96024e-07
-1.13066e-05
-9.06965e-07
-1.08163e-05
-2.66016e-06
-9.90202e-06
-4.4338e-06
-8.45373e-06
-6.01951e-06
-6.37211e-06
-7.03378e-06
-3.74033e-06
-6.85231e-06
-1.15026e-06
-4.75183e-06
1.16344e-07
-9.68014e-07
1.15831e-06
-6.00841e-07
1.10629e-06
-1.66308e-06
2.37867e-06
-3.03134e-06
3.52828e-06
-4.65178e-06
4.77715e-06
-6.36914e-06
5.86337e-06
-7.96851e-06
6.43457e-06
-9.28976e-06
6.31185e-06
-1.02789e-05
5.54855e-06
-1.09539e-05
4.31603e-06
-1.13601e-05
2.76733e-06
-1.15522e-05
9.88183e-07
-1.15542e-05
-9.04997e-07
-1.13638e-05
-2.85056e-06
-1.0906e-05
-4.89161e-06
-1.00164e-05
-6.90907e-06
-8.44372e-06
-8.60649e-06
-5.96131e-06
-9.33472e-06
-2.73763e-06
-7.97551e-06
-2.12451e-07
-3.49319e-06
9.45858e-07
-7.3154e-07
1.83782e-06
-1.9509e-06
3.59804e-06
-3.41044e-06
4.98781e-06
-5.00067e-06
6.36738e-06
-6.5451e-06
7.4078e-06
-7.86517e-06
7.75464e-06
-8.8631e-06
7.30978e-06
-9.53778e-06
6.22323e-06
-9.94357e-06
4.72182e-06
-1.01581e-05
2.98186e-06
-1.0281e-05
1.11103e-06
-1.03609e-05
-8.25066e-07
-1.03884e-05
-2.823e-06
-1.03483e-05
-4.93177e-06
-1.00984e-05
-7.15896e-06
-9.32644e-06
-9.37843e-06
-7.58862e-06
-1.10725e-05
-4.5749e-06
-1.09892e-05
-9.7254e-07
-7.09556e-06
-2.66816e-08
-7.47332e-07
2.58516e-06
-1.96831e-06
4.81902e-06
-3.34863e-06
6.36813e-06
-4.74697e-06
7.76572e-06
-6.00561e-06
8.66644e-06
-6.99574e-06
8.74478e-06
-7.67114e-06
7.98519e-06
-8.06522e-06
6.61731e-06
-8.25426e-06
4.91086e-06
-8.327e-06
3.0546e-06
-8.3686e-06
1.15263e-06
-8.43349e-06
-7.60174e-07
-8.53871e-06
-2.71779e-06
-8.71418e-06
-4.7563e-06
-8.90966e-06
-6.96349e-06
-8.88054e-06
-9.40755e-06
-8.11034e-06
-1.18427e-05
-5.92274e-06
-1.31768e-05
-2.0941e-06
-1.09242e-05
-2.12078e-06
-6.44693e-07
3.22985e-06
-1.72506e-06
5.89939e-06
-2.90327e-06
7.54634e-06
-4.02696e-06
8.88941e-06
-4.9763e-06
9.61578e-06
-5.67295e-06
9.44143e-06
-6.10889e-06
8.42112e-06
-6.33604e-06
6.84446e-06
-6.43337e-06
5.00819e-06
-6.47542e-06
3.09664e-06
-6.50872e-06
1.18594e-06
-6.5534e-06
-7.15498e-07
-6.64201e-06
-2.62917e-06
-6.83168e-06
-4.56664e-06
-7.16405e-06
-6.63111e-06
-7.54484e-06
-9.02676e-06
-7.52426e-06
-1.18633e-05
-6.2846e-06
-1.44165e-05
-3.18152e-06
-1.40273e-05
-5.3023e-06
-4.47248e-07
3.6771e-06
-1.28624e-06
6.73839e-06
-2.19426e-06
8.45435e-06
-3.01979e-06
9.71494e-06
-3.68325e-06
1.02792e-05
-4.15089e-06
9.90907e-06
-4.43933e-06
8.70956e-06
-4.60251e-06
7.00764e-06
-4.70513e-06
5.11081e-06
-4.79217e-06
3.18368e-06
-4.87209e-06
1.26586e-06
-4.93515e-06
-6.5244e-07
-5.00121e-06
-2.56312e-06
-5.12489e-06
-4.44296e-06
-5.40986e-06
-6.34613e-06
-5.8947e-06
-8.54192e-06
-6.3142e-06
-1.14438e-05
-5.86768e-06
-1.4863e-05
-3.67154e-06
-1.62234e-05
-8.97384e-06
-1.90574e-07
3.86767e-06
-7.28839e-07
7.27665e-06
-1.3369e-06
9.06241e-06
-1.86855e-06
1.02466e-05
-2.27776e-06
1.06884e-05
-2.56629e-06
1.01976e-05
-2.76181e-06
8.90508e-06
-2.90699e-06
7.15282e-06
-3.04136e-06
5.24519e-06
-3.18286e-06
3.32518e-06
-3.32126e-06
1.40425e-06
-3.43426e-06
-5.39436e-07
-3.52274e-06
-2.47464e-06
-3.61688e-06
-4.34881e-06
-3.81957e-06
-6.14345e-06
-4.2744e-06
-8.08708e-06
-4.90438e-06
-1.08138e-05
-5.01533e-06
-1.47521e-05
-3.45152e-06
-1.77872e-05
-1.24254e-05
7.94545e-08
3.78822e-06
-1.28963e-07
7.48507e-06
-4.36178e-07
9.36962e-06
-6.89694e-07
1.05001e-05
-8.68695e-07
1.08674e-05
-9.93223e-07
1.03221e-05
-1.09701e-06
9.00887e-06
-1.21121e-06
7.26703e-06
-1.35122e-06
5.3852e-06
-1.51566e-06
3.48962e-06
-1.69307e-06
1.58166e-06
-1.86718e-06
-3.65321e-07
-2.02455e-06
-2.31728e-06
-2.17271e-06
-4.20064e-06
-2.37596e-06
-5.94019e-06
-2.79949e-06
-7.66355e-06
-3.52399e-06
-1.00893e-05
-4.01361e-06
-1.42624e-05
-2.99806e-06
-1.88028e-05
-1.54234e-05
3.00788e-07
3.48743e-06
4.15577e-07
7.37028e-06
4.27975e-07
9.35722e-06
4.60116e-07
1.0468e-05
5.17804e-07
1.08098e-05
5.68008e-07
1.02719e-05
5.74869e-07
9.002e-06
5.23566e-07
7.31833e-06
4.18036e-07
5.49073e-06
2.69302e-07
3.63836e-06
8.49749e-08
1.76599e-06
-1.3371e-07
-1.46636e-07
-3.79002e-07
-2.07199e-06
-6.52116e-07
-3.92753e-06
-9.74785e-07
-5.61753e-06
-1.44154e-06
-7.1968e-06
-2.24717e-06
-9.28371e-06
-3.02333e-06
-1.34863e-05
-2.50016e-06
-1.9326e-05
-1.79236e-05
4.60956e-07
3.02647e-06
8.68596e-07
6.96264e-06
1.17545e-06
9.05037e-06
1.49589e-06
1.01475e-05
1.82255e-06
1.04831e-05
2.08769e-06
1.00068e-05
2.24804e-06
8.84165e-06
2.30177e-06
7.2646e-06
2.26862e-06
5.52387e-06
2.16429e-06
3.74268e-06
1.98776e-06
1.94253e-06
1.71893e-06
1.22194e-07
1.377e-06
-1.73006e-06
9.57979e-07
-3.50851e-06
4.63218e-07
-5.12277e-06
-1.88489e-07
-6.5451e-06
-1.08343e-06
-8.38877e-06
-2.07782e-06
-1.24919e-05
-2.00572e-06
-1.93981e-05
-1.99293e-05
5.26894e-07
2.49958e-06
1.16833e-06
6.32121e-06
1.74916e-06
8.46954e-06
2.34791e-06
9.54879e-06
2.94911e-06
9.8819e-06
3.46909e-06
9.4868e-06
3.84512e-06
8.46563e-06
4.06573e-06
7.04399e-06
4.15031e-06
5.43929e-06
4.11673e-06
3.77626e-06
3.96072e-06
2.09854e-06
3.66656e-06
4.16355e-07
3.22122e-06
-1.28472e-06
2.63539e-06
-2.92268e-06
1.92142e-06
-4.40879e-06
1.09826e-06
-5.72194e-06
3.70219e-08
-7.32754e-06
-1.18762e-06
-1.12672e-05
-1.53759e-06
-1.90481e-05
-2.14669e-05
4.74928e-07
2.02465e-06
1.22768e-06
5.56845e-06
2.02411e-06
7.67311e-06
2.88744e-06
8.68546e-06
3.78156e-06
8.98777e-06
4.60037e-06
8.66799e-06
5.2537e-06
7.8123e-06
5.70681e-06
6.59088e-06
5.9646e-06
5.1815e-06
6.0404e-06
3.70046e-06
5.9319e-06
2.20704e-06
5.62081e-06
7.27447e-07
5.08164e-06
-7.45551e-07
4.33466e-06
-2.1757e-06
3.39405e-06
-3.46818e-06
2.3207e-06
-4.64858e-06
1.05727e-06
-6.06411e-06
-3.79246e-07
-9.83073e-06
-1.06803e-06
-1.83593e-05
-2.25349e-05
3.17211e-07
1.70744e-06
1.04636e-06
4.8393e-06
2.01851e-06
6.70096e-06
3.13203e-06
7.57194e-06
4.31458e-06
7.80522e-06
5.44269e-06
7.53988e-06
6.39967e-06
6.85533e-06
7.12303e-06
5.86752e-06
7.59453e-06
4.71e-06
7.81449e-06
3.4805e-06
7.77968e-06
2.24185e-06
7.48217e-06
1.02495e-06
6.8668e-06
-1.30182e-07
5.97887e-06
-1.28777e-06
4.82685e-06
-2.31616e-06
3.50424e-06
-3.32598e-06
2.0699e-06
-4.62976e-06
5.28159e-07
-8.28899e-06
-3.79751e-07
-1.74514e-05
-2.29147e-05
-1.87969e-08
1.72624e-06
4.37783e-07
4.38272e-06
1.46324e-06
5.6755e-06
2.82035e-06
6.21483e-06
4.31826e-06
6.30731e-06
5.78374e-06
6.07441e-06
7.07414e-06
5.56492e-06
8.1068e-06
4.83486e-06
8.83536e-06
3.98144e-06
9.24611e-06
3.06976e-06
9.32223e-06
2.16572e-06
9.06124e-06
1.28595e-06
8.45941e-06
4.71653e-07
7.48558e-06
-3.13943e-07
6.21699e-06
-1.04757e-06
4.7359e-06
-1.84489e-06
3.23525e-06
-3.12911e-06
1.80313e-06
-6.85688e-06
4.81749e-07
-1.613e-05
-2.24329e-05
-4.33667e-07
2.15991e-06
-1.26946e-07
4.076e-06
8.64152e-07
4.68441e-06
2.35826e-06
4.72072e-06
4.08222e-06
4.58335e-06
5.80023e-06
4.3564e-06
7.34644e-06
4.01871e-06
8.62901e-06
3.55229e-06
9.58045e-06
3.03e-06
1.01844e-05
2.46576e-06
1.0421e-05
1.92913e-06
1.0303e-05
1.40393e-06
9.82752e-06
9.47171e-07
9.021e-06
4.92584e-07
7.95073e-06
2.27019e-08
6.67904e-06
-5.73203e-07
5.42237e-06
-1.87244e-06
3.97867e-06
-5.41318e-06
1.85677e-06
-1.40081e-05
-2.05761e-05
-4.08055e-06
6.24045e-06
-3.67464e-06
3.6701e-06
-1.71204e-06
2.7218e-06
5.47823e-07
2.46086e-06
2.80091e-06
2.33026e-06
4.9763e-06
2.18101e-06
6.98339e-06
2.01162e-06
8.74366e-06
1.79202e-06
1.02e-05
1.57361e-06
1.13424e-05
1.32342e-06
1.21606e-05
1.11091e-06
1.26834e-05
8.81126e-07
1.29096e-05
7.2098e-07
1.28796e-05
5.226e-07
1.25467e-05
3.556e-07
1.19663e-05
7.22961e-09
1.11977e-05
-1.10385e-06
9.76846e-06
-3.98397e-06
5.49521e-06
-9.73486e-06
-1.50809e-05
6.24045e-06
9.91055e-06
1.26324e-05
1.50932e-05
1.74235e-05
1.96045e-05
2.16161e-05
2.34081e-05
2.49817e-05
2.63052e-05
2.74161e-05
2.82972e-05
2.90182e-05
2.95408e-05
2.98964e-05
2.99036e-05
2.87998e-05
2.48158e-05
1.50809e-05
)
;

boundaryField
{
    movingWall
    {
        type            calculated;
        value           uniform 0;
    }
    fixedWalls
    {
        type            calculated;
        value           uniform 0;
    }
    frontAndBack
    {
        type            empty;
        value           nonuniform List<scalar> 0();
    }
}


// ************************************************************************* //
