/*--------------------------------*- C++ -*----------------------------------*\
| =========                 |                                                 |
| \\      /  F ield         | OpenFOAM: The Open Source CFD Toolbox           |
|  \\    /   O peration     | Version:  2212                                  |
|   \\  /    A nd           | Website:  www.openfoam.com                      |
|    \\/     M anipulation  |                                                 |
\*---------------------------------------------------------------------------*/
FoamFile
{
    version     2.0;
    format      ascii;
    arch        "LSB;label=32;scalar=64";
    class       volVectorField;
    location    "4.21";
    object      U;
}
// * * * * * * * * * * * * * * * * * * * * * * * * * * * * * * * * * * * * * //

dimensions      [0 1 -1 0 0 0 0];

internalField   nonuniform List<vector> 
400
(
(0.00166047 -0.00166586 0)
(0.00477014 -0.00186961 0)
(0.00648465 -0.00118802 0)
(0.00555794 -0.000566608 0)
(0.00146829 0.000191699 0)
(-0.00688342 0.00173741 0)
(-0.0205634 0.0047502 0)
(-0.0393533 0.00865679 0)
(-0.0604802 0.0112038 0)
(-0.0787301 0.0104593 0)
(-0.089418 0.00676911 0)
(-0.0901541 0.00170088 0)
(-0.0800645 -0.00355635 0)
(-0.0600014 -0.00820442 0)
(-0.0336911 -0.0107849 0)
(-0.00557966 -0.00976272 0)
(0.0163981 -0.00480634 0)
(0.0242093 0.00271826 0)
(0.0160601 0.00641368 0)
(0.00429617 0.00468657 0)
(0.00168152 -0.00498571 0)
(0.00305547 -0.00394741 0)
(-0.000555366 0.000622576 0)
(-0.0114234 0.00642467 0)
(-0.0313824 0.0139672 0)
(-0.0608767 0.0235967 0)
(-0.096318 0.0328052 0)
(-0.130738 0.0368419 0)
(-0.15815 0.0333497 0)
(-0.175268 0.0233487 0)
(-0.180674 0.00916941 0)
(-0.174411 -0.00683715 0)
(-0.157053 -0.0229494 0)
(-0.129325 -0.0366622 0)
(-0.0934821 -0.0443387 0)
(-0.0522522 -0.0416991 0)
(-0.0115943 -0.0263452 0)
(0.0166365 -0.0014254 0)
(0.0177231 0.0160547 0)
(0.00551524 0.01472 0)
(-0.000275558 -0.00563134 0)
(-0.00544659 0.000928649 0)
(-0.0196257 0.0142794 0)
(-0.0443539 0.0310448 0)
(-0.0799127 0.0490879 0)
(-0.121474 0.0638583 0)
(-0.161381 0.0700888 0)
(-0.194147 0.0656711 0)
(-0.217652 0.0519846 0)
(-0.2313 0.0315009 0)
(-0.235096 0.00655764 0)
(-0.229696 -0.0208139 0)
(-0.215409 -0.0484512 0)
(-0.191733 -0.0727466 0)
(-0.158395 -0.0885726 0)
(-0.115361 -0.0889013 0)
(-0.0644316 -0.0669226 0)
(-0.0139192 -0.0228457 0)
(0.00939209 0.0176544 0)
(0.00415164 0.0234201 0)
(-0.00346944 0.000622632 0)
(-0.0174547 0.0172998 0)
(-0.0432994 0.0412876 0)
(-0.0791916 0.0677183 0)
(-0.122141 0.0905095 0)
(-0.164756 0.103159 0)
(-0.200633 0.1023 0)
(-0.227822 0.089226 0)
(-0.246576 0.0670762 0)
(-0.257498 0.0385496 0)
(-0.261425 0.00551849 0)
(-0.25916 -0.0306911 0)
(-0.25064 -0.0678503 0)
(-0.234818 -0.103027 0)
(-0.2097 -0.130764 0)
(-0.172586 -0.142274 0)
(-0.120926 -0.125396 0)
(-0.0566962 -0.0708477 0)
(-0.00105341 0.0032813 0)
(0.00473805 0.028042 0)
(-0.00662108 0.0148773 0)
(-0.028534 0.0439841 0)
(-0.0628381 0.0766085 0)
(-0.103687 0.108147 0)
(-0.146199 0.130307 0)
(-0.183278 0.137326 0)
(-0.211462 0.128771 0)
(-0.231124 0.108203 0)
(-0.243553 0.0794804 0)
(-0.250475 0.045389 0)
(-0.253585 0.00746357 0)
(-0.253817 -0.0334975 0)
(-0.250949 -0.076351 0)
(-0.244416 -0.11979 0)
(-0.231408 -0.159862 0)
(-0.207298 -0.188127 0)
(-0.166054 -0.189269 0)
(-0.103011 -0.142521 0)
(-0.0221652 -0.0390051 0)
(0.00733004 0.0268714 0)
(-0.00843626 0.0347987 0)
(-0.0348791 0.0762584 0)
(-0.0724865 0.114179 0)
(-0.11234 0.146659 0)
(-0.149344 0.164919 0)
(-0.178035 0.164939 0)
(-0.197423 0.148894 0)
(-0.209038 0.12184 0)
(-0.214866 0.0881278 0)
(-0.217396 0.0507479 0)
(-0.218618 0.0111659 0)
(-0.219551 -0.030213 0)
(-0.2204 -0.0738811 0)
(-0.221248 -0.120243 0)
(-0.219887 -0.168093 0)
(-0.211203 -0.211945 0)
(-0.187108 -0.237597 0)
(-0.139028 -0.217797 0)
(-0.0625355 -0.118645 0)
(0.00576005 0.014034 0)
(-0.00820495 0.0567201 0)
(-0.0349998 0.109359 0)
(-0.0711787 0.149453 0)
(-0.106134 0.179911 0)
(-0.135559 0.192581 0)
(-0.15582 0.185302 0)
(-0.167585 0.162309 0)
(-0.172956 0.129731 0)
(-0.174346 0.0923476 0)
(-0.174281 0.0531901 0)
(-0.174302 0.0134996 0)
(-0.175109 -0.0266936 0)
(-0.177258 -0.0685661 0)
(-0.181279 -0.113444 0)
(-0.186499 -0.162469 0)
(-0.189245 -0.214488 0)
(-0.181592 -0.260479 0)
(-0.153549 -0.274177 0)
(-0.0988631 -0.205221 0)
(-0.00888049 -0.0147236 0)
(-0.00605874 0.0770976 0)
(-0.0294728 0.13965 0)
(-0.0608174 0.17995 0)
(-0.0890469 0.206865 0)
(-0.110884 0.213465 0)
(-0.124286 0.199268 0)
(-0.130812 0.170197 0)
(-0.132758 0.133225 0)
(-0.132593 0.0933737 0)
(-0.132293 0.053384 0)
(-0.132578 0.013986 0)
(-0.133648 -0.0252141 0)
(-0.135973 -0.0652876 0)
(-0.140247 -0.107522 0)
(-0.147063 -0.153949 0)
(-0.155064 -0.206944 0)
(-0.158208 -0.264493 0)
(-0.146105 -0.306939 0)
(-0.111744 -0.276247 0)
(-0.0307684 -0.0750751 0)
(-0.00268282 0.0929219 0)
(-0.0201706 0.16451 0)
(-0.0446644 0.204139 0)
(-0.0656665 0.226959 0)
(-0.080796 0.227954 0)
(-0.0891628 0.208094 0)
(-0.092631 0.174478 0)
(-0.0933362 0.134603 0)
(-0.0933927 0.0935158 0)
(-0.0940026 0.0534881 0)
(-0.0952361 0.0146198 0)
(-0.0970058 -0.0239038 0)
(-0.0994945 -0.0629177 0)
(-0.103215 -0.103183 0)
(-0.109316 -0.146402 0)
(-0.118509 -0.196578 0)
(-0.127577 -0.258116 0)
(-0.126014 -0.322085 0)
(-0.107074 -0.333544 0)
(-0.0371644 -0.162611 0)
(0.00122202 0.101929 0)
(-0.00880523 0.182168 0)
(-0.025333 0.221536 0)
(-0.0391932 0.241002 0)
(-0.0485698 0.237805 0)
(-0.0533427 0.213945 0)
(-0.0551758 0.1773 0)
(-0.0557214 0.135744 0)
(-0.0565147 0.094253 0)
(-0.0581246 0.0545709 0)
(-0.0603311 0.0162372 0)
(-0.0629867 -0.0218438 0)
(-0.0660918 -0.0603779 0)
(-0.0698398 -0.0996639 0)
(-0.0751782 -0.140489 0)
(-0.083694 -0.186606 0)
(-0.0954442 -0.246385 0)
(-0.100318 -0.322804 0)
(-0.0949182 -0.370919 0)
(-0.0308315 -0.241509 0)
(0.00506623 0.103045 0)
(0.00296055 0.191651 0)
(-0.00528955 0.231923 0)
(-0.0123248 0.248936 0)
(-0.0166535 0.242887 0)
(-0.0184785 0.216776 0)
(-0.019084 0.178812 0)
(-0.0195162 0.136869 0)
(-0.0207288 0.0956809 0)
(-0.0229046 0.0566083 0)
(-0.025749 0.0189136 0)
(-0.0291909 -0.0185934 0)
(-0.0332501 -0.0566571 0)
(-0.0378855 -0.0954172 0)
(-0.0436593 -0.13489 0)
(-0.0518471 -0.177608 0)
(-0.0653461 -0.233411 0)
(-0.0740738 -0.316421 0)
(-0.0810793 -0.395338 0)
(-0.0229036 -0.305929 0)
(0.00834187 0.0966208 0)
(0.0140732 0.192605 0)
(0.0139724 0.235401 0)
(0.0135935 0.251671 0)
(0.014226 0.244617 0)
(0.015435 0.218006 0)
(0.0163127 0.180054 0)
(0.0163846 0.138477 0)
(0.0152495 0.0978086 0)
(0.0129602 0.0593464 0)
(0.00979298 0.0223829 0)
(0.00571903 -0.0142671 0)
(0.000592092 -0.0514651 0)
(-0.00546345 -0.0893923 0)
(-0.0128543 -0.12775 0)
(-0.0217948 -0.167665 0)
(-0.0375831 -0.218292 0)
(-0.048799 -0.30271 0)
(-0.0679263 -0.407114 0)
(-0.0144729 -0.358796 0)
(0.0101586 0.0838035 0)
(0.0231203 0.185067 0)
(0.0307198 0.231547 0)
(0.0366002 0.248225 0)
(0.0422164 0.241401 0)
(0.047129 0.215715 0)
(0.0505211 0.179068 0)
(0.0521411 0.138818 0)
(0.0519398 0.099326 0)
(0.050136 0.0619544 0)
(0.046984 0.0261804 0)
(0.0423995 -0.00911579 0)
(0.0362054 -0.0448797 0)
(0.0285006 -0.0813623 0)
(0.0185126 -0.118247 0)
(0.00731804 -0.155852 0)
(-0.0119978 -0.201946 0)
(-0.0245202 -0.284675 0)
(-0.055986 -0.409677 0)
(-0.0061866 -0.400724 0)
(0.00969437 0.0668115 0)
(0.0286124 0.169429 0)
(0.0437883 0.220567 0)
(0.0562111 0.239474 0)
(0.0673975 0.234537 0)
(0.0769843 0.211269 0)
(0.0841021 0.177106 0)
(0.0884423 0.138939 0)
(0.0900838 0.101046 0)
(0.089345 0.0650147 0)
(0.0865672 0.0306942 0)
(0.0815405 -0.00294586 0)
(0.0741142 -0.0365482 0)
(0.0645573 -0.0707389 0)
(0.0515344 -0.105356 0)
(0.036825 -0.140346 0)
(0.012617 -0.181876 0)
(-0.000387216 -0.261504 0)
(-0.0450397 -0.405496 0)
(0.00268233 -0.435266 0)
(0.00679438 0.0492714 0)
(0.0288936 0.147984 0)
(0.0503986 0.202168 0)
(0.0690885 0.222854 0)
(0.0863991 0.219964 0)
(0.101938 0.199894 0)
(0.114453 0.169445 0)
(0.123257 0.134746 0)
(0.128267 0.0998125 0)
(0.12975 0.0663524 0)
(0.127988 0.0346038 0)
(0.123059 0.00374135 0)
(0.114487 -0.0266143 0)
(0.102905 -0.0573383 0)
(0.0860927 -0.088513 0)
(0.0671902 -0.120792 0)
(0.0374686 -0.158691 0)
(0.0232927 -0.235559 0)
(-0.0347484 -0.397904 0)
(0.0133482 -0.463663 0)
(0.00233439 0.0347452 0)
(0.0232278 0.123276 0)
(0.0502026 0.178773 0)
(0.075661 0.201487 0)
(0.100087 0.2011 0)
(0.122748 0.184759 0)
(0.141988 0.158837 0)
(0.156592 0.128593 0)
(0.166148 0.097645 0)
(0.170881 0.0676991 0)
(0.170755 0.0393416 0)
(0.166499 0.0121494 0)
(0.156744 -0.0142509 0)
(0.143171 -0.0406152 0)
(0.122173 -0.0672754 0)
(0.0989676 -0.0957995 0)
(0.0635254 -0.130899 0)
(0.0463821 -0.206174 0)
(-0.0230734 -0.386358 0)
(0.0283518 -0.48506 0)
(-0.00339335 0.0289154 0)
(0.0097765 0.10125 0)
(0.0364313 0.14785 0)
(0.0679665 0.168302 0)
(0.100558 0.169419 0)
(0.131992 0.157165 0)
(0.159719 0.136848 0)
(0.182013 0.112619 0)
(0.197844 0.0875521 0)
(0.20758 0.0631782 0)
(0.210402 0.0402426 0)
(0.208089 0.0186002 0)
(0.197922 -0.00211578 0)
(0.183457 -0.0224272 0)
(0.158963 -0.0428235 0)
(0.132727 -0.066413 0)
(0.0916905 -0.100319 0)
(0.0692557 -0.178981 0)
(-0.00471832 -0.369598 0)
(0.051987 -0.491394 0)
(-0.0138082 0.0188134 0)
(-0.00749859 0.0882216 0)
(0.0188005 0.123781 0)
(0.0556356 0.136595 0)
(0.0963884 0.136038 0)
(0.136389 0.126838 0)
(0.172293 0.112247 0)
(0.20182 0.0945887 0)
(0.223469 0.0762823 0)
(0.238348 0.0583271 0)
(0.244293 0.0416891 0)
(0.245167 0.0262294 0)
(0.235964 0.0121261 0)
(0.224309 -0.00146709 0)
(0.199669 -0.0153212 0)
(0.176134 -0.0341715 0)
(0.132307 -0.0669419 0)
(0.107196 -0.145496 0)
(0.0371804 -0.326052 0)
(0.0922501 -0.45584 0)
(-0.105877 0.0826272 0)
(-0.0776413 0.0691577 0)
(-0.0486253 0.0732146 0)
(0.00341164 0.0775363 0)
(0.0565514 0.0777605 0)
(0.108903 0.073467 0)
(0.155723 0.0661656 0)
(0.197759 0.0568307 0)
(0.229638 0.0472597 0)
(0.2576 0.0377176 0)
(0.273266 0.029187 0)
(0.28841 0.0213241 0)
(0.288897 0.0146944 0)
(0.29319 0.00840096 0)
(0.277245 0.00152443 0)
(0.270387 -0.00961411 0)
(0.231449 -0.0352158 0)
(0.217745 -0.09526 0)
(0.15013 -0.22972 0)
(0.170657 -0.341489 0)
(0.130049 0.103801 0)
(0.15849 0.075383 0)
(0.212435 0.0534013 0)
(0.270928 0.0417577 0)
(0.323381 0.035998 0)
(0.375616 0.0319906 0)
(0.419985 0.0289351 0)
(0.465072 0.0255896 0)
(0.497984 0.0229167 0)
(0.533094 0.0197342 0)
(0.552465 0.0175889 0)
(0.578271 0.0146663 0)
(0.584477 0.0132414 0)
(0.602945 0.0104365 0)
(0.594553 0.00948613 0)
(0.603267 0.0050921 0)
(0.567674 0.000165251 0)
(0.547714 -0.0182693 0)
(0.435902 -0.0504105 0)
(0.336856 -0.101404 0)
)
;

boundaryField
{
    movingWall
    {
        type            fixedValue;
        value           uniform (1 0 0);
    }
    fixedWalls
    {
        type            noSlip;
    }
    frontAndBack
    {
        type            empty;
    }
}


// ************************************************************************* //
