/*--------------------------------*- C++ -*----------------------------------*\
| =========                 |                                                 |
| \\      /  F ield         | OpenFOAM: The Open Source CFD Toolbox           |
|  \\    /   O peration     | Version:  2212                                  |
|   \\  /    A nd           | Website:  www.openfoam.com                      |
|    \\/     M anipulation  |                                                 |
\*---------------------------------------------------------------------------*/
FoamFile
{
    version     2.0;
    format      ascii;
    arch        "LSB;label=32;scalar=64";
    class       surfaceScalarField;
    location    "3.995";
    object      phi;
}
// * * * * * * * * * * * * * * * * * * * * * * * * * * * * * * * * * * * * * //

dimensions      [0 3 -1 0 0 0 0];

oriented        oriented;

internalField   nonuniform List<scalar> 
760
(
1.5329e-07
-1.53312e-07
2.87649e-07
-1.34359e-07
3.02629e-07
-1.49795e-08
1.76534e-07
1.26095e-07
-1.2548e-07
3.02014e-07
-6.66296e-07
5.40816e-07
-1.47754e-06
8.11246e-07
-2.47387e-06
9.96325e-07
-3.4563e-06
9.82433e-07
-4.19385e-06
7.37551e-07
-4.51962e-06
3.25765e-07
-4.33661e-06
-1.83002e-07
-3.58718e-06
-7.49439e-07
-2.3839e-06
-1.20328e-06
-9.5493e-07
-1.42897e-06
3.27074e-07
-1.282e-06
1.07131e-06
-7.44235e-07
1.022e-06
4.93049e-08
4.57123e-07
5.64882e-07
4.57123e-07
1.20356e-07
-2.73669e-07
6.62884e-08
-8.02906e-08
-3.04299e-07
3.55608e-07
-1.07985e-06
9.01648e-07
-2.30504e-06
1.5272e-06
-3.90113e-06
2.1369e-06
-5.62171e-06
2.53183e-06
-7.15693e-06
2.53154e-06
-8.28279e-06
2.10829e-06
-8.88889e-06
1.34366e-06
-8.92771e-06
3.64584e-07
-8.37605e-06
-7.34661e-07
-7.26493e-06
-1.86057e-06
-5.62656e-06
-2.84164e-06
-3.60355e-06
-3.45198e-06
-1.49848e-06
-3.38707e-06
1.63985e-07
-2.4067e-06
8.47138e-07
-6.33848e-07
5.20937e-07
8.91084e-07
9.7806e-07
-1.30846e-07
-1.42823e-07
-6.36266e-07
4.2513e-07
-1.61959e-06
1.33893e-06
-3.1215e-06
2.40356e-06
-5.01919e-06
3.42489e-06
-7.01816e-06
4.13588e-06
-8.80611e-06
4.31978e-06
-1.02028e-05
3.92824e-06
-1.11556e-05
3.06112e-06
-1.16566e-05
1.84464e-06
-1.16554e-05
3.63319e-07
-1.12028e-05
-1.18719e-06
-1.02798e-05
-2.78362e-06
-8.83178e-06
-4.28964e-06
-6.83835e-06
-5.4454e-06
-4.38762e-06
-5.8378e-06
-1.8765e-06
-4.91783e-06
-9.12095e-08
-2.41914e-06
2.92475e-07
5.074e-07
1.27053e-06
-4.98436e-07
3.55613e-07
-1.55031e-06
1.477e-06
-3.09508e-06
2.88371e-06
-5.03791e-06
4.34639e-06
-7.12323e-06
5.5102e-06
-9.04674e-06
6.05939e-06
-1.06067e-05
5.87977e-06
-1.17593e-05
5.08085e-06
-1.2532e-05
3.8338e-06
-1.29596e-05
2.27221e-06
-1.30281e-05
4.31794e-07
-1.27938e-05
-1.4214e-06
-1.22195e-05
-3.35793e-06
-1.12031e-05
-5.30605e-06
-9.61336e-06
-7.03517e-06
-7.32561e-06
-8.12555e-06
-4.37809e-06
-7.86534e-06
-1.37524e-06
-5.42199e-06
1.18602e-07
-9.8644e-07
1.38914e-06
-8.54172e-07
1.20978e-06
-2.33954e-06
2.96238e-06
-4.19195e-06
4.73611e-06
-6.22008e-06
6.37452e-06
-8.14659e-06
7.43671e-06
-9.74995e-06
7.66275e-06
-1.09522e-05
7.08204e-06
-1.17788e-05
5.90742e-06
-1.22914e-05
4.34639e-06
-1.25631e-05
2.5439e-06
-1.26842e-05
5.52943e-07
-1.26436e-05
-1.46208e-06
-1.24311e-05
-3.57038e-06
-1.1967e-05
-5.7701e-06
-1.10646e-05
-7.93765e-06
-9.43589e-06
-9.75423e-06
-6.78337e-06
-1.05179e-05
-3.20669e-06
-8.99868e-06
-2.62213e-07
-3.93091e-06
1.12692e-06
-1.07443e-06
2.28421e-06
-2.75412e-06
4.64206e-06
-4.62879e-06
6.61078e-06
-6.4698e-06
8.21553e-06
-8.05481e-06
9.02173e-06
-9.25226e-06
8.8602e-06
-1.00563e-05
7.88609e-06
-1.05312e-05
6.38228e-06
-1.07672e-05
4.58246e-06
-1.08652e-05
2.64191e-06
-1.0947e-05
6.34707e-07
-1.10022e-05
-1.40686e-06
-1.10453e-05
-3.5273e-06
-1.1046e-05
-5.7694e-06
-1.08491e-05
-8.13454e-06
-1.01264e-05
-1.04769e-05
-8.38486e-06
-1.22594e-05
-5.21234e-06
-1.21712e-05
-1.15306e-06
-7.99019e-06
-2.61387e-08
-1.09628e-06
3.3805e-06
-2.72601e-06
6.27178e-06
-4.40673e-06
8.29151e-06
-5.92827e-06
9.73707e-06
-7.13122e-06
1.02247e-05
-7.95179e-06
9.68077e-06
-8.42582e-06
8.36013e-06
-8.6396e-06
6.59606e-06
-8.69724e-06
4.64009e-06
-8.69743e-06
2.6421e-06
-8.72486e-06
6.62141e-07
-8.7998e-06
-1.33193e-06
-8.94164e-06
-3.38545e-06
-9.16088e-06
-5.55016e-06
-9.39845e-06
-7.89697e-06
-9.42009e-06
-1.04553e-05
-8.7055e-06
-1.2974e-05
-6.50078e-06
-1.43759e-05
-2.40815e-06
-1.20828e-05
-2.43429e-06
-9.22581e-07
4.30308e-06
-2.31833e-06
7.66753e-06
-3.69171e-06
9.66489e-06
-4.85963e-06
1.0905e-05
-5.72083e-06
1.10859e-05
-6.25688e-06
1.02168e-05
-6.52334e-06
8.62659e-06
-6.61086e-06
6.68358e-06
-6.61676e-06
4.64599e-06
-6.61609e-06
2.64144e-06
-6.64694e-06
6.92988e-07
-6.72738e-06
-1.25149e-06
-6.87896e-06
-3.23388e-06
-7.13196e-06
-5.29715e-06
-7.50175e-06
-7.52719e-06
-7.89356e-06
-1.00635e-05
-7.89373e-06
-1.29738e-05
-6.68488e-06
-1.55848e-05
-3.56348e-06
-1.52042e-05
-5.99777e-06
-6.15323e-07
4.9184e-06
-1.66569e-06
8.7179e-06
-2.68852e-06
1.06877e-05
-3.51892e-06
1.17354e-05
-4.10069e-06
1.16676e-05
-4.44271e-06
1.05588e-05
-4.60283e-06
8.78671e-06
-4.6596e-06
6.74035e-06
-4.6866e-06
4.67299e-06
-4.72931e-06
2.68414e-06
-4.79901e-06
7.62689e-07
-4.90289e-06
-1.1476e-06
-5.0515e-06
-3.08527e-06
-5.27401e-06
-5.07464e-06
-5.6253e-06
-7.1759e-06
-6.11636e-06
-9.57243e-06
-6.52349e-06
-1.25667e-05
-6.10272e-06
-1.60056e-05
-3.90554e-06
-1.74014e-05
-9.90331e-06
-2.27868e-07
5.14627e-06
-8.80598e-07
9.37063e-06
-1.54527e-06
1.13524e-05
-2.06878e-06
1.22589e-05
-2.42264e-06
1.20215e-05
-2.63043e-06
1.07666e-05
-2.74004e-06
8.89632e-06
-2.80505e-06
6.80536e-06
-2.8712e-06
4.73914e-06
-2.96148e-06
2.77443e-06
-3.07898e-06
8.80188e-07
-3.22374e-06
-1.00284e-06
-3.39649e-06
-2.91253e-06
-3.61028e-06
-4.86085e-06
-3.91748e-06
-6.8687e-06
-4.39952e-06
-9.09039e-06
-4.99892e-06
-1.19673e-05
-5.10787e-06
-1.58966e-05
-3.54776e-06
-1.89615e-05
-1.34511e-05
1.62609e-07
4.98366e-06
-6.74117e-08
9.60065e-06
-3.96629e-07
1.16816e-05
-6.44227e-07
1.25065e-05
-7.95528e-07
1.21728e-05
-8.81354e-07
1.08525e-05
-9.41368e-07
8.95633e-06
-1.00786e-06
6.87185e-06
-1.09787e-06
4.82916e-06
-1.21917e-06
2.89572e-06
-1.37394e-06
1.03495e-06
-1.56434e-06
-8.12436e-07
-1.78956e-06
-2.68731e-06
-2.04836e-06
-4.60205e-06
-2.3699e-06
-6.54716e-06
-2.84856e-06
-8.61173e-06
-3.54539e-06
-1.12705e-05
-4.01784e-06
-1.54242e-05
-3.02087e-06
-1.99585e-05
-1.64719e-05
4.95004e-07
4.48866e-06
6.91313e-07
9.40434e-06
7.34305e-07
1.16386e-05
7.70412e-07
1.24704e-05
8.16527e-07
1.21267e-05
8.46796e-07
1.08222e-05
8.40837e-07
8.96229e-06
7.90079e-07
6.92261e-06
6.96299e-07
4.92294e-06
5.61692e-07
3.03033e-06
3.81949e-07
1.2147e-06
1.50814e-07
-5.81301e-07
-1.3397e-07
-2.40253e-06
-4.79189e-07
-4.25683e-06
-8.90665e-07
-6.13568e-06
-1.4158e-06
-8.0866e-06
-2.20168e-06
-1.04846e-05
-2.95583e-06
-1.467e-05
-2.46205e-06
-2.04523e-05
-1.8934e-05
7.46183e-07
3.74247e-06
1.33792e-06
8.81261e-06
1.72724e-06
1.12493e-05
2.05457e-06
1.2143e-05
2.32672e-06
1.18545e-05
2.51249e-06
1.06364e-05
2.60267e-06
8.87211e-06
2.60785e-06
6.91744e-06
2.54283e-06
4.98795e-06
2.41599e-06
3.15717e-06
2.22123e-06
1.40946e-06
1.94463e-06
-3.04695e-07
1.58502e-06
-2.04292e-06
1.13744e-06
-3.80925e-06
5.9644e-07
-5.59469e-06
-9.18021e-08
-7.39836e-06
-9.66659e-07
-9.60972e-06
-1.93036e-06
-1.37063e-05
-1.93054e-06
-2.04521e-05
-2.08645e-05
8.58228e-07
2.88425e-06
1.78737e-06
7.88346e-06
2.52224e-06
1.05144e-05
3.15826e-06
1.1507e-05
3.70233e-06
1.13105e-05
4.11027e-06
1.02285e-05
4.36516e-06
8.61722e-06
4.48082e-06
6.80177e-06
4.48123e-06
4.98754e-06
4.38284e-06
3.25556e-06
4.18453e-06
1.60777e-06
3.85967e-06
2.01661e-08
3.41966e-06
-1.60291e-06
2.84339e-06
-3.23297e-06
2.13004e-06
-4.88134e-06
1.29583e-06
-6.56414e-06
2.47677e-07
-8.56157e-06
-9.75211e-07
-1.24834e-05
-1.43529e-06
-1.9992e-05
-2.22998e-05
7.94205e-07
2.09004e-06
1.92775e-06
6.74992e-06
2.96016e-06
9.48202e-06
3.92575e-06
1.05414e-05
4.79659e-06
1.04396e-05
5.50596e-06
9.51912e-06
6.01384e-06
8.10934e-06
6.32301e-06
6.4926e-06
6.45536e-06
4.8552e-06
6.4306e-06
3.28032e-06
6.24915e-06
1.78922e-06
5.90456e-06
3.64753e-07
5.37111e-06
-1.06946e-06
4.65103e-06
-2.51289e-06
3.73637e-06
-3.96668e-06
2.65503e-06
-5.4828e-06
1.36306e-06
-7.2696e-06
-1.69362e-07
-1.0951e-05
-9.24205e-07
-1.92372e-05
-2.3224e-05
5.68382e-07
1.52166e-06
1.73443e-06
5.58387e-06
3.05935e-06
8.1571e-06
4.39873e-06
9.20205e-06
5.65534e-06
9.18301e-06
6.73028e-06
8.44419e-06
7.55752e-06
7.28209e-06
8.12418e-06
5.92595e-06
8.44329e-06
4.53608e-06
8.53304e-06
3.19057e-06
8.40087e-06
1.92139e-06
8.04515e-06
7.20475e-07
7.42281e-06
-4.47117e-07
6.5499e-06
-1.63998e-06
5.41322e-06
-2.83001e-06
4.05368e-06
-4.12325e-06
2.53805e-06
-5.75396e-06
9.31977e-07
-9.34493e-06
-1.56031e-07
-1.81491e-05
-2.33801e-05
1.46899e-07
1.37476e-06
1.02e-06
4.71077e-06
2.48216e-06
6.69494e-06
4.18954e-06
7.49467e-06
5.89857e-06
7.47398e-06
7.42219e-06
6.92057e-06
8.65739e-06
6.04689e-06
9.57434e-06
5.009e-06
1.01684e-05
3.94202e-06
1.04524e-05
2.90658e-06
1.04327e-05
1.94105e-06
1.01158e-05
1.03744e-06
9.46015e-06
2.08495e-07
8.48065e-06
-6.60481e-07
7.17194e-06
-1.52129e-06
5.58374e-06
-2.53506e-06
3.87383e-06
-4.04405e-06
2.21825e-06
-7.68935e-06
6.44478e-07
-1.65754e-05
-2.27356e-05
-5.13347e-07
1.88811e-06
1.93512e-07
4.00392e-06
1.73205e-06
5.15641e-06
3.77715e-06
5.44957e-06
5.91533e-06
5.3358e-06
7.86194e-06
4.97396e-06
9.48027e-06
4.42856e-06
1.07292e-05
3.76006e-06
1.15913e-05
3.07996e-06
1.20839e-05
2.41397e-06
1.22117e-05
1.81323e-06
1.19953e-05
1.25382e-06
1.14556e-05
7.48241e-07
1.05682e-05
2.26932e-07
9.33672e-06
-2.89852e-07
7.82941e-06
-1.02775e-06
6.23202e-06
-2.44665e-06
4.43781e-06
-5.89514e-06
2.04775e-06
-1.41853e-05
-2.06878e-05
-4.17504e-06
6.06315e-06
-3.63964e-06
3.46851e-06
-1.25589e-06
2.77266e-06
1.52697e-06
2.6667e-06
4.25015e-06
2.61262e-06
6.76928e-06
2.45483e-06
8.97276e-06
2.22508e-06
1.08012e-05
1.93163e-06
1.2237e-05
1.64418e-06
1.33073e-05
1.34359e-06
1.40296e-05
1.09093e-06
1.44482e-05
8.3527e-07
1.45519e-05
6.44508e-07
1.43517e-05
4.27198e-07
1.38367e-05
2.25093e-07
1.30221e-05
-2.1309e-07
1.18991e-05
-1.32368e-06
1.0103e-05
-4.09909e-06
5.63404e-06
-9.71633e-06
-1.50538e-05
6.06315e-06
9.53166e-06
1.23043e-05
1.4971e-05
1.75836e-05
2.00385e-05
2.22636e-05
2.41952e-05
2.58394e-05
2.7183e-05
2.82739e-05
2.91092e-05
2.97537e-05
3.01809e-05
3.0406e-05
3.01929e-05
2.88692e-05
2.47701e-05
1.50538e-05
)
;

boundaryField
{
    movingWall
    {
        type            calculated;
        value           uniform 0;
    }
    fixedWalls
    {
        type            calculated;
        value           uniform 0;
    }
    frontAndBack
    {
        type            empty;
        value           nonuniform List<scalar> 0();
    }
}


// ************************************************************************* //
