/*--------------------------------*- C++ -*----------------------------------*\
| =========                 |                                                 |
| \\      /  F ield         | OpenFOAM: The Open Source CFD Toolbox           |
|  \\    /   O peration     | Version:  2212                                  |
|   \\  /    A nd           | Website:  www.openfoam.com                      |
|    \\/     M anipulation  |                                                 |
\*---------------------------------------------------------------------------*/
FoamFile
{
    version     2.0;
    format      ascii;
    arch        "LSB;label=32;scalar=64";
    class       volScalarField;
    location    "3.465";
    object      p;
}
// * * * * * * * * * * * * * * * * * * * * * * * * * * * * * * * * * * * * * //

dimensions      [0 2 -2 0 0 0 0];

internalField   nonuniform List<scalar> 
400
(
1.29301e-06
-0.00582778
-0.0129661
-0.0184186
-0.0204363
-0.0182428
-0.0117783
-0.00148807
0.0118331
0.027145
0.0432405
0.0588192
0.0725749
0.0833048
0.0900491
0.0922633
0.0900221
0.0842402
0.0768769
0.0710634
0.00577829
-0.000221244
-0.00580734
-0.0095462
-0.0106028
-0.00843675
-0.00297411
0.00546988
0.0162986
0.0287075
0.0417458
0.0543821
0.0655827
0.0744062
0.0801166
0.082312
0.0810735
0.077051
0.0712703
0.065314
0.0133322
0.00503048
-0.000998754
-0.00442676
-0.00527674
-0.00326788
0.00159826
0.00902339
0.0184978
0.029345
0.0407613
0.0518657
0.0617647
0.0696326
0.0748033
0.0768743
0.0758378
0.072082
0.0658015
0.0575315
0.0201364
0.0086927
0.00122238
-0.0026722
-0.00372594
-0.00188924
0.00272724
0.00978043
0.0187762
0.0290908
0.0399878
0.0506499
0.060229
0.0679121
0.0729994
0.0749977
0.0737619
0.0694521
0.0615989
0.0500983
0.0244989
0.00976984
0.0005863
-0.00399057
-0.00530604
-0.00351125
0.00117073
0.00833048
0.0174578
0.0279448
0.0390808
0.0500657
0.0600448
0.0681611
0.0736224
0.0757938
0.074365
0.0692857
0.0595214
0.0445328
0.0251747
0.00714675
-0.00380547
-0.00906082
-0.0105159
-0.00850387
-0.00336078
0.00442539
0.0143093
0.0256749
0.0378096
0.0498991
0.0610439
0.070299
0.0767306
0.0795128
0.0781349
0.0723294
0.0605351
0.0418857
0.0210902
-0.000265708
-0.0129379
-0.0187129
-0.0200335
-0.0174178
-0.0113223
-0.00232368
0.0089864
0.0219721
0.0359055
0.0499402
0.063108
0.0743411
0.0825177
0.0865654
0.0857166
0.079443
0.0656162
0.0430674
0.0111394
-0.0136217
-0.0278785
-0.0338578
-0.0346072
-0.0308613
-0.0232167
-0.0123491
0.00110086
0.0164799
0.0330485
0.0499295
0.0660792
0.0802857
0.0911966
0.0974259
0.0978662
0.091632
0.0758922
0.0491123
-0.00597076
-0.0342701
-0.0498736
-0.0555522
-0.0550937
-0.0495183
-0.0395973
-0.0261172
-0.00976106
0.00881902
0.028897
0.0495895
0.0697935
0.0881505
0.103043
0.112697
0.115546
0.110188
0.0928302
0.0614073
-0.0318609
-0.0638799
-0.0804206
-0.0850108
-0.0824237
-0.074082
-0.0609846
-0.0440404
-0.0239554
-0.00134084
0.0231416
0.0486571
0.0740917
0.0979683
0.118392
0.133122
0.139985
0.136814
0.118437
0.0819298
-0.0686711
-0.104607
-0.121348
-0.123594
-0.117519
-0.10513
-0.0877219
-0.0663292
-0.0416408
-0.0141595
0.0156017
0.0469493
0.0788519
0.10979
0.13762
0.159582
0.172723
0.173774
0.155517
0.113567
-0.119406
-0.159361
-0.174919
-0.172761
-0.161151
-0.142932
-0.119762
-0.0927806
-0.0625811
-0.0294514
0.00636936
0.0444697
0.0840514
0.123699
0.161133
0.193082
0.215664
0.224073
0.208047
0.160629
-0.188632
-0.232245
-0.243942
-0.233951
-0.213698
-0.187158
-0.156376
-0.122505
-0.0859013
-0.0464756
-0.00401797
0.0415353
0.0898386
0.139826
0.189315
0.234686
0.271071
0.291661
0.281739
0.229772
-0.283978
-0.329308
-0.331835
-0.308283
-0.274712
-0.236443
-0.195767
-0.153613
-0.109843
-0.0637482
-0.014441
0.0388603
0.0965511
0.158273
0.222371
0.285285
0.341394
0.381572
0.384911
0.331831
-0.419321
-0.459674
-0.442353
-0.395795
-0.342132
-0.287742
-0.234618
-0.182932
-0.131612
-0.0789875
-0.0232166
0.0374727
0.104551
0.178835
0.259859
0.344968
0.428613
0.499697
0.529672
0.485389
-0.620534
-0.636746
-0.578679
-0.494195
-0.411243
-0.33566
-0.267782
-0.20598
-0.147539
-0.089385
-0.0284281
0.0383462
0.113805
0.20047
0.299973
0.412023
0.533027
0.651773
0.732769
0.722393
-0.935926
-0.878517
-0.741743
-0.59795
-0.474394
-0.372661
-0.28887
-0.217764
-0.153955
-0.0924656
-0.028719
0.041694
0.123262
0.220716
0.338924
0.482153
0.651995
0.84134
1.01527
1.0975
-1.47642
-1.20663
-0.920505
-0.691389
-0.517306
-0.387545
-0.290062
-0.213338
-0.148125
-0.087217
-0.0245791
0.0454559
0.128936
0.233069
0.367102
0.542677
0.771291
1.05932
1.40329
1.73014
-2.53965
-1.63055
-1.04444
-0.71096
-0.495752
-0.352094
-0.254532
-0.183584
-0.126171
-0.0735965
-0.0192705
0.0427853
0.119211
0.218781
0.354811
0.547982
0.826391
1.23658
1.91168
2.92419
-4.36667
-2.04464
-0.973543
-0.563182
-0.357847
-0.240148
-0.170121
-0.123784
-0.0874826
-0.0535117
-0.016656
0.0276591
0.0846058
0.161728
0.27241
0.442097
0.718217
1.22571
2.41103
4.84853
)
;

boundaryField
{
    movingWall
    {
        type            zeroGradient;
    }
    fixedWalls
    {
        type            zeroGradient;
    }
    frontAndBack
    {
        type            empty;
    }
}


// ************************************************************************* //
