/*--------------------------------*- C++ -*----------------------------------*\
| =========                 |                                                 |
| \\      /  F ield         | OpenFOAM: The Open Source CFD Toolbox           |
|  \\    /   O peration     | Version:  2212                                  |
|   \\  /    A nd           | Website:  www.openfoam.com                      |
|    \\/     M anipulation  |                                                 |
\*---------------------------------------------------------------------------*/
FoamFile
{
    version     2.0;
    format      ascii;
    arch        "LSB;label=32;scalar=64";
    class       volScalarField;
    location    "4.675";
    object      p;
}
// * * * * * * * * * * * * * * * * * * * * * * * * * * * * * * * * * * * * * //

dimensions      [0 2 -2 0 0 0 0];

internalField   nonuniform List<scalar> 
400
(
-4.2007e-08
-0.000151151
-0.000533633
-0.00106862
-0.0017266
-0.00248434
-0.00317237
-0.0035832
-0.00355055
-0.00292062
-0.00153916
0.000622112
0.00324727
0.00551333
0.00654407
0.00595179
0.00404788
0.00220441
0.00116656
0.00109576
0.000115474
-5.84717e-05
-0.000375868
-0.000761715
-0.00124012
-0.00188131
-0.00269468
-0.0035266
-0.0040592
-0.00391742
-0.00282956
-0.000814693
0.00169423
0.00396695
0.00514112
0.00477663
0.00315452
0.00143216
0.000651029
0.000739173
0.000532789
0.000263101
-7.73862e-05
-0.000557792
-0.00134157
-0.00256742
-0.00419494
-0.00594719
-0.00735607
-0.0078939
-0.00721805
-0.00542302
-0.00286028
-0.000166741
0.00182376
0.00247052
0.00176428
0.000563289
-0.000334321
-0.000334465
0.0011429
0.000734458
0.000188859
-0.000771665
-0.00243648
-0.00490524
-0.00794007
-0.0110423
-0.0136066
-0.0150705
-0.0151009
-0.0137417
-0.0112079
-0.00795584
-0.00468746
-0.00214818
-0.000808825
-0.000644212
-0.00122581
-0.00185663
0.00156531
0.000960174
-2.80486e-05
-0.00191394
-0.00497189
-0.00911227
-0.0138087
-0.0183388
-0.022046
-0.0244647
-0.0253356
-0.0245387
-0.0221981
-0.0186017
-0.0141869
-0.00955933
-0.00551318
-0.00288243
-0.00213287
-0.00395168
0.00126956
0.000428098
-0.00119906
-0.00427826
-0.00893807
-0.0147639
-0.0209037
-0.0264976
-0.0309341
-0.0338954
-0.035253
-0.0349064
-0.0329379
-0.0294935
-0.0247125
-0.018813
-0.0123939
-0.0068669
-0.00433465
-0.00645011
-7.0663e-05
-0.00116036
-0.00348908
-0.00774528
-0.0138241
-0.0209408
-0.0279968
-0.0341077
-0.0387785
-0.0418478
-0.0433219
-0.0432211
-0.0416117
-0.0385609
-0.0340448
-0.0279459
-0.0203812
-0.0125928
-0.0077762
-0.00768146
-0.00246209
-0.00374192
-0.00666772
-0.0118295
-0.0188856
-0.0267496
-0.0341941
-0.0403969
-0.0450075
-0.0479902
-0.0494331
-0.0494311
-0.0480624
-0.045373
-0.0413123
-0.0356461
-0.0281125
-0.0192209
-0.0117256
-0.0079181
-0.00553102
-0.00689521
-0.0102074
-0.0159038
-0.0234594
-0.0316025
-0.0390762
-0.0451549
-0.0496079
-0.0524754
-0.0538783
-0.0539231
-0.0526839
-0.0502174
-0.046531
-0.0414641
-0.0345989
-0.025752
-0.0165799
-0.00991265
-0.00870675
-0.0100447
-0.0135166
-0.0193936
-0.0270503
-0.0351555
-0.0424844
-0.0483908
-0.0527109
-0.0555093
-0.0569023
-0.0569765
-0.055795
-0.053428
-0.0499539
-0.0453571
-0.0393193
-0.031288
-0.0221532
-0.0142189
-0.0114603
-0.0126995
-0.0161194
-0.0218846
-0.0293467
-0.0372287
-0.0443657
-0.0501421
-0.0544013
-0.0571891
-0.058598
-0.0586917
-0.0575206
-0.0551604
-0.05175
-0.0474161
-0.0420903
-0.035123
-0.0270029
-0.0190242
-0.013496
-0.0145507
-0.0177469
-0.0231381
-0.0301638
-0.0376958
-0.0446488
-0.0503829
-0.0546766
-0.0575233
-0.0589769
-0.0590813
-0.0578785
-0.0554453
-0.0519726
-0.0477
-0.0428677
-0.0367987
-0.0298331
-0.0222496
-0.0147814
-0.0154995
-0.0182459
-0.0230407
-0.0294392
-0.0365284
-0.0433147
-0.0490942
-0.0535244
-0.0565069
-0.0580425
-0.0581524
-0.0568736
-0.0543051
-0.0506629
-0.0462492
-0.0416594
-0.0360744
-0.0300502
-0.0227447
-0.0154139
-0.0156607
-0.0176855
-0.0216
-0.0271679
-0.0337211
-0.0403457
-0.0462437
-0.0509145
-0.0541286
-0.0558105
-0.0559539
-0.0545745
-0.0518008
-0.0478921
-0.0432365
-0.0384887
-0.032977
-0.0279694
-0.0201753
-0.0155253
-0.015248
-0.0162686
-0.0189774
-0.0234808
-0.0293836
-0.0358339
-0.0419108
-0.0469247
-0.0504779
-0.0523891
-0.0525981
-0.0511453
-0.0481214
-0.0438569
-0.0387946
-0.0336263
-0.0279919
-0.0241722
-0.014356
-0.015235
-0.0145126
-0.0142174
-0.0153597
-0.0185738
-0.0237181
-0.029976
-0.0362769
-0.0417249
-0.0457315
-0.0479905
-0.0483724
-0.0469007
-0.0436453
-0.0389752
-0.0333576
-0.0275833
-0.0216442
-0.0181035
-0.00389409
-0.0146303
-0.0135937
-0.011691
-0.0110628
-0.0129088
-0.0172834
-0.0233663
-0.0299244
-0.0358738
-0.0404353
-0.0431722
-0.0438586
-0.0424872
-0.0390905
-0.0340022
-0.0276219
-0.0207223
-0.0133971
-0.00695333
0.0159044
-0.0145668
-0.0126473
-0.00865928
-0.00626222
-0.00692723
-0.0107226
-0.0167308
-0.0235781
-0.0300642
-0.0352473
-0.0385798
-0.0397131
-0.0385937
-0.0352347
-0.0297826
-0.0222813
-0.0129965
-0.000905188
0.0164341
0.0568463
-0.0117939
-0.0118383
-0.00576713
-0.00184272
-0.00182993
-0.00543609
-0.011547
-0.0187137
-0.0257013
-0.031454
-0.0353936
-0.0370892
-0.0364431
-0.0331802
-0.0271504
-0.0175882
-0.00331803
0.0202241
0.0604091
0.129581
-0.02951
-0.0106484
-0.000667516
0.00299476
0.0023629
-0.00161063
-0.0079953
-0.0154769
-0.0228263
-0.0289629
-0.033283
-0.0353318
-0.0349726
-0.0317897
-0.0251533
-0.0128972
0.00926538
0.0509263
0.122615
0.22586
)
;

boundaryField
{
    movingWall
    {
        type            zeroGradient;
    }
    fixedWalls
    {
        type            zeroGradient;
    }
    frontAndBack
    {
        type            empty;
    }
}


// ************************************************************************* //
