/*--------------------------------*- C++ -*----------------------------------*\
| =========                 |                                                 |
| \\      /  F ield         | OpenFOAM: The Open Source CFD Toolbox           |
|  \\    /   O peration     | Version:  2212                                  |
|   \\  /    A nd           | Website:  www.openfoam.com                      |
|    \\/     M anipulation  |                                                 |
\*---------------------------------------------------------------------------*/
FoamFile
{
    version     2.0;
    format      ascii;
    arch        "LSB;label=32;scalar=64";
    class       volVectorField;
    location    "4.57";
    object      U;
}
// * * * * * * * * * * * * * * * * * * * * * * * * * * * * * * * * * * * * * //

dimensions      [0 1 -1 0 0 0 0];

internalField   nonuniform List<vector> 
400
(
(0.00166828 -0.00167217 0)
(0.0047949 -0.00187766 0)
(0.00652273 -0.00119246 0)
(0.00559934 -0.000569511 0)
(0.00150466 0.000189065 0)
(-0.00686466 0.00173815 0)
(-0.0205787 0.00476287 0)
(-0.039417 0.0086844 0)
(-0.0605921 0.0112349 0)
(-0.0788687 0.0104788 0)
(-0.0895552 0.00677328 0)
(-0.0902672 0.00169315 0)
(-0.0801341 -0.00357336 0)
(-0.0600194 -0.00822579 0)
(-0.0336574 -0.0108053 0)
(-0.00550526 -0.00977532 0)
(0.0164913 -0.00479993 0)
(0.0242892 0.00273485 0)
(0.0160986 0.00643194 0)
(0.00430328 0.00469677 0)
(0.00169544 -0.00501402 0)
(0.00309346 -0.00397757 0)
(-0.000506964 0.000610691 0)
(-0.0113917 0.00643149 0)
(-0.0313996 0.0139971 0)
(-0.0609733 0.0236585 0)
(-0.0964999 0.0328923 0)
(-0.130981 0.0369249 0)
(-0.158423 0.0334045 0)
(-0.175544 0.0233669 0)
(-0.180932 0.009153 0)
(-0.174636 -0.00688221 0)
(-0.157229 -0.0230176 0)
(-0.129447 -0.0367412 0)
(-0.093544 -0.0444138 0)
(-0.0522538 -0.0417511 0)
(-0.0115482 -0.0263527 0)
(0.0167089 -0.0013871 0)
(0.0177688 0.0161058 0)
(0.00552405 0.0147523 0)
(-0.000263188 -0.00568402 0)
(-0.00542487 0.000884597 0)
(-0.0196227 0.0142883 0)
(-0.0444102 0.031114 0)
(-0.0800646 0.0492125 0)
(-0.121724 0.0640133 0)
(-0.161703 0.0702359 0)
(-0.19451 0.0657809 0)
(-0.218034 0.052045 0)
(-0.231682 0.0315086 0)
(-0.235463 0.00651387 0)
(-0.230036 -0.0209047 0)
(-0.215712 -0.0485797 0)
(-0.191987 -0.0728961 0)
(-0.158593 -0.0887195 0)
(-0.115492 -0.089016 0)
(-0.0644864 -0.0669729 0)
(-0.0138996 -0.0228054 0)
(0.0094181 0.0177312 0)
(0.00415331 0.0234706 0)
(-0.00347101 0.000564215 0)
(-0.0174782 0.0172814 0)
(-0.0433789 0.0413651 0)
(-0.0793649 0.0678845 0)
(-0.12242 0.090728 0)
(-0.165116 0.10338 0)
(-0.201041 0.102483 0)
(-0.228256 0.089353 0)
(-0.247023 0.067142 0)
(-0.257946 0.0385515 0)
(-0.261864 0.00545549 0)
(-0.25958 -0.0308175 0)
(-0.251029 -0.0680288 0)
(-0.235166 -0.103242 0)
(-0.209996 -0.130988 0)
(-0.172819 -0.142474 0)
(-0.121079 -0.125528 0)
(-0.0567522 -0.0708707 0)
(-0.00103649 0.00335969 0)
(0.00474015 0.0281035 0)
(-0.00663618 0.0148465 0)
(-0.0286039 0.0440315 0)
(-0.0629961 0.0767786 0)
(-0.103951 0.108408 0)
(-0.146554 0.130598 0)
(-0.183686 0.137592 0)
(-0.211898 0.12898 0)
(-0.231578 0.108347 0)
(-0.244019 0.079557 0)
(-0.250948 0.0453944 0)
(-0.254058 0.00739409 0)
(-0.254278 -0.0336407 0)
(-0.251382 -0.0765582 0)
(-0.244814 -0.120047 0)
(-0.231759 -0.160144 0)
(-0.207595 -0.188402 0)
(-0.166283 -0.189498 0)
(-0.103148 -0.142651 0)
(-0.0221775 -0.0389758 0)
(0.0073455 0.0269398 0)
(-0.00846195 0.0348268 0)
(-0.0349817 0.0763922 0)
(-0.0726918 0.114442 0)
(-0.112644 0.147001 0)
(-0.149718 0.165265 0)
(-0.178441 0.165239 0)
(-0.197849 0.149127 0)
(-0.209484 0.122006 0)
(-0.215334 0.0882241 0)
(-0.217886 0.0507675 0)
(-0.21912 0.0111011 0)
(-0.220048 -0.0303634 0)
(-0.220871 -0.0741105 0)
(-0.221678 -0.120532 0)
(-0.220265 -0.168416 0)
(-0.211526 -0.212272 0)
(-0.187374 -0.237899 0)
(-0.139224 -0.218036 0)
(-0.0626347 -0.118753 0)
(0.00578482 0.0140834 0)
(-0.00823411 0.0568194 0)
(-0.035114 0.109583 0)
(-0.0713957 0.1498 0)
(-0.106436 0.180318 0)
(-0.135912 0.192971 0)
(-0.156196 0.18563 0)
(-0.167984 0.16257 0)
(-0.173386 0.129926 0)
(-0.174819 0.0924741 0)
(-0.174796 0.0532339 0)
(-0.174844 0.0134434 0)
(-0.175655 -0.0268593 0)
(-0.177779 -0.0688366 0)
(-0.181749 -0.113792 0)
(-0.186901 -0.162855 0)
(-0.189575 -0.21487 0)
(-0.18186 -0.260832 0)
(-0.153761 -0.274487 0)
(-0.0990229 -0.205441 0)
(-0.00889129 -0.0146986 0)
(-0.00608336 0.0772689 0)
(-0.0295773 0.139957 0)
(-0.0610149 0.180369 0)
(-0.0893138 0.207327 0)
(-0.11119 0.213894 0)
(-0.124614 0.199628 0)
(-0.131172 0.170492 0)
(-0.133165 0.133462 0)
(-0.133057 0.0935452 0)
(-0.132812 0.0534667 0)
(-0.133134 0.0139496 0)
(-0.134216 -0.0253902 0)
(-0.136523 -0.0656021 0)
(-0.140745 -0.107944 0)
(-0.147483 -0.154425 0)
(-0.155395 -0.20741 0)
(-0.15846 -0.264909 0)
(-0.146295 -0.307304 0)
(-0.111895 -0.276547 0)
(-0.0308267 -0.0751604 0)
(-0.00269719 0.093156 0)
(-0.0202503 0.164891 0)
(-0.0448211 0.204618 0)
(-0.0658786 0.227467 0)
(-0.0810399 0.228418 0)
(-0.0894307 0.208488 0)
(-0.0929353 0.174814 0)
(-0.0936923 0.134891 0)
(-0.093809 0.0937434 0)
(-0.0944723 0.0536199 0)
(-0.0957416 0.0146135 0)
(-0.0975272 -0.0240768 0)
(-0.100006 -0.06326 0)
(-0.103689 -0.103667 0)
(-0.109722 -0.146969 0)
(-0.118824 -0.197144 0)
(-0.127804 -0.25861 0)
(-0.126166 -0.322502 0)
(-0.107197 -0.33392 0)
(-0.0372184 -0.162863 0)
(0.00122231 0.102207 0)
(-0.00884893 0.182606 0)
(-0.025433 0.222062 0)
(-0.0393341 0.241549 0)
(-0.0487364 0.238303 0)
(-0.0535325 0.214375 0)
(-0.0554003 0.177679 0)
(-0.0559918 0.136083 0)
(-0.0568342 0.0945333 0)
(-0.0584845 0.0547472 0)
(-0.0607189 0.0162603 0)
(-0.0633906 -0.0220055 0)
(-0.0664963 -0.0607311 0)
(-0.0702248 -0.100188 0)
(-0.0755195 -0.14113 0)
(-0.0839626 -0.187269 0)
(-0.0956305 -0.246964 0)
(-0.10042 -0.323265 0)
(-0.0949972 -0.371324 0)
(-0.0308591 -0.241836 0)
(0.0050841 0.103338 0)
(0.00296013 0.192126 0)
(-0.00532275 0.232482 0)
(-0.0123843 0.249512 0)
(-0.016732 0.243414 0)
(-0.018576 0.217236 0)
(-0.0192071 0.179225 0)
(-0.0196701 0.137246 0)
(-0.0209121 0.0959979 0)
(-0.0231097 0.0568176 0)
(-0.0259703 0.0189641 0)
(-0.0294259 -0.0187348 0)
(-0.0334939 -0.0570013 0)
(-0.0381284 -0.0959501 0)
(-0.0438878 -0.135568 0)
(-0.0520345 -0.178345 0)
(-0.065476 -0.23407 0)
(-0.0741227 -0.316931 0)
(-0.0811191 -0.395771 0)
(-0.0229158 -0.306301 0)
(0.00838016 0.096897 0)
(0.0141205 0.193093 0)
(0.0140114 0.235976 0)
(0.0136238 0.252264 0)
(0.0142481 0.245165 0)
(0.0154464 0.218491 0)
(0.0163109 0.180492 0)
(0.0163695 0.138876 0)
(0.0152258 0.0981462 0)
(0.012934 0.0595752 0)
(0.00976345 0.0224545 0)
(0.00567973 -0.0143854 0)
(0.000538762 -0.0517877 0)
(-0.00552968 -0.0899099 0)
(-0.0129344 -0.128429 0)
(-0.0218689 -0.168433 0)
(-0.0376348 -0.219004 0)
(-0.0487849 -0.303245 0)
(-0.0679243 -0.407541 0)
(-0.0144697 -0.359176 0)
(0.0102146 0.0840272 0)
(0.0232159 0.185538 0)
(0.0308315 0.232119 0)
(0.0367211 0.248823 0)
(0.0423422 0.241959 0)
(0.0472557 0.216211 0)
(0.0506481 0.179511 0)
(0.0522723 0.139215 0)
(0.052081 0.0996589 0)
(0.0502922 0.0621828 0)
(0.0471501 0.0262608 0)
(0.0425613 -0.00921476 0)
(0.0363508 -0.0451768 0)
(0.0286236 -0.0818504 0)
(0.0185985 -0.1189 0)
(0.00737579 -0.156614 0)
(-0.0119586 -0.202683 0)
(-0.0244438 -0.285225 0)
(-0.0559481 -0.41009 0)
(-0.00617266 -0.401084 0)
(0.00975451 0.0669514 0)
(0.0287472 0.169847 0)
(0.0439666 0.221109 0)
(0.05642 0.240056 0)
(0.0676287 0.235092 0)
(0.0772317 0.211765 0)
(0.0843645 0.177545 0)
(0.0887237 0.139324 0)
(0.0903896 0.101364 0)
(0.0896769 0.0652319 0)
(0.0869243 0.0307764 0)
(0.0818951 -0.00303499 0)
(0.0744512 -0.0368184 0)
(0.0648654 -0.071184 0)
(0.0517873 -0.105957 0)
(0.0370229 -0.141062 0)
(0.0127566 -0.182591 0)
(-0.000253868 -0.262039 0)
(-0.0449706 -0.405877 0)
(0.00270695 -0.43558 0)
(0.00683868 0.0493148 0)
(0.0290473 0.148314 0)
(0.0506273 0.202655 0)
(0.0693705 0.2234 0)
(0.0867223 0.220495 0)
(0.102295 0.200373 0)
(0.114841 0.169862 0)
(0.123677 0.135101 0)
(0.128723 0.100096 0)
(0.13024 0.0665405 0)
(0.128505 0.0346715 0)
(0.123581 0.00365899 0)
(0.114999 -0.0268513 0)
(0.103384 -0.0577287 0)
(0.086499 -0.0890422 0)
(0.0675209 -0.12143 0)
(0.0377068 -0.159346 0)
(0.0234594 -0.236053 0)
(-0.0346572 -0.398239 0)
(0.0133866 -0.463907 0)
(0.00235161 0.0347089 0)
(0.0233642 0.123489 0)
(0.0504493 0.179167 0)
(0.075991 0.201964 0)
(0.100485 0.201582 0)
(0.123203 0.185203 0)
(0.142494 0.159224 0)
(0.157147 0.128918 0)
(0.166747 0.0978984 0)
(0.17152 0.067865 0)
(0.171422 0.0394028 0)
(0.167177 0.0120897 0)
(0.157404 -0.0144399 0)
(0.143791 -0.0409363 0)
(0.12271 -0.0677151 0)
(0.0994116 -0.0963291 0)
(0.0638519 -0.131453 0)
(0.0465704 -0.206577 0)
(-0.0229614 -0.386592 0)
(0.0284073 -0.485223 0)
(-0.00340404 0.0288189 0)
(0.00987535 0.10134 0)
(0.0366572 0.148138 0)
(0.0682974 0.168687 0)
(0.100981 0.169825 0)
(0.132497 0.157544 0)
(0.160299 0.137178 0)
(0.182659 0.112889 0)
(0.198546 0.0877553 0)
(0.208333 0.0633044 0)
(0.211183 0.0402795 0)
(0.208888 0.0185412 0)
(0.198696 -0.0022812 0)
(0.184186 -0.0226909 0)
(0.159599 -0.0431714 0)
(0.133252 -0.0668177 0)
(0.0920682 -0.100744 0)
(0.0694479 -0.179306 0)
(-0.00460845 -0.369746 0)
(0.0520416 -0.491478 0)
(-0.0138746 0.0187176 0)
(-0.0075014 0.0882113 0)
(0.0189443 0.123924 0)
(0.0559103 0.136839 0)
(0.0967913 0.136323 0)
(0.13691 0.12712 0)
(0.172918 0.112501 0)
(0.202535 0.0947998 0)
(0.224253 0.0764408 0)
(0.239192 0.0584276 0)
(0.24516 0.0417208 0)
(0.246047 0.0261921 0)
(0.236802 0.0120113 0)
(0.225101 -0.00164259 0)
(0.200353 -0.015555 0)
(0.176682 -0.0344344 0)
(0.132696 -0.0672104 0)
(0.1074 -0.145659 0)
(0.0372746 -0.326078 0)
(0.0922877 -0.455855 0)
(-0.105923 0.0825592 0)
(-0.077677 0.0691063 0)
(-0.0486001 0.073271 0)
(0.00354103 0.0776571 0)
(0.0568037 0.0779142 0)
(0.109276 0.0736258 0)
(0.156205 0.0663096 0)
(0.198339 0.05695 0)
(0.230285 0.0473454 0)
(0.258301 0.0377684 0)
(0.273983 0.0291968 0)
(0.289129 0.0212971 0)
(0.289574 0.0146287 0)
(0.293812 0.00830747 0)
(0.277757 0.00140202 0)
(0.270791 -0.00973741 0)
(0.231737 -0.0353263 0)
(0.217878 -0.0953123 0)
(0.15016 -0.229722 0)
(0.170664 -0.341481 0)
(0.130023 0.103782 0)
(0.158434 0.0753314 0)
(0.212348 0.0533445 0)
(0.270848 0.0417144 0)
(0.323343 0.0359715 0)
(0.375646 0.0319778 0)
(0.420088 0.0289294 0)
(0.465248 0.0255867 0)
(0.498216 0.0229121 0)
(0.533368 0.0197266 0)
(0.552758 0.0175761 0)
(0.578565 0.0146491 0)
(0.58475 0.0132181 0)
(0.603179 0.010409 0)
(0.594729 0.00945479 0)
(0.603378 0.00506378 0)
(0.567717 0.000141305 0)
(0.547689 -0.0182846 0)
(0.435841 -0.0504132 0)
(0.336826 -0.1014 0)
)
;

boundaryField
{
    movingWall
    {
        type            fixedValue;
        value           uniform (1 0 0);
    }
    fixedWalls
    {
        type            noSlip;
    }
    frontAndBack
    {
        type            empty;
    }
}


// ************************************************************************* //
