/*--------------------------------*- C++ -*----------------------------------*\
| =========                 |                                                 |
| \\      /  F ield         | OpenFOAM: The Open Source CFD Toolbox           |
|  \\    /   O peration     | Version:  2212                                  |
|   \\  /    A nd           | Website:  www.openfoam.com                      |
|    \\/     M anipulation  |                                                 |
\*---------------------------------------------------------------------------*/
FoamFile
{
    version     2.0;
    format      ascii;
    arch        "LSB;label=32;scalar=64";
    class       surfaceScalarField;
    location    "1.95";
    object      phi;
}
// * * * * * * * * * * * * * * * * * * * * * * * * * * * * * * * * * * * * * //

dimensions      [0 3 -1 0 0 0 0];

oriented        oriented;

internalField   nonuniform List<scalar> 
760
(
9.25406e-08
-9.25428e-08
1.56512e-07
-6.39711e-08
1.41232e-07
1.52797e-08
2.53633e-08
1.15869e-07
-2.25134e-07
2.50497e-07
-6.57918e-07
4.32784e-07
-1.30028e-06
6.42358e-07
-2.10579e-06
8.05516e-07
-2.93378e-06
8.27991e-07
-3.59396e-06
6.60177e-07
-3.92262e-06
3.28664e-07
-3.82518e-06
-9.74468e-08
-3.22101e-06
-6.04169e-07
-2.20176e-06
-1.01925e-06
-9.65617e-07
-1.23614e-06
1.60487e-07
-1.1261e-06
8.46101e-07
-6.85615e-07
8.52429e-07
-6.32817e-09
3.90617e-07
4.61812e-07
3.90617e-07
2.77681e-08
-1.20311e-07
-8.94644e-08
5.32617e-08
-4.21757e-07
3.47572e-07
-1.04391e-06
7.38018e-07
-2.00946e-06
1.21605e-06
-3.29246e-06
1.71578e-06
-4.73948e-06
2.08938e-06
-6.10863e-06
2.17467e-06
-7.17674e-06
1.8961e-06
-7.8042e-06
1.28764e-06
-7.92555e-06
4.50017e-07
-7.49793e-06
-5.2507e-07
-6.54757e-06
-1.55453e-06
-5.10275e-06
-2.46408e-06
-3.29599e-06
-3.0429e-06
-1.406e-06
-3.01609e-06
8.362e-08
-2.17524e-06
7.20714e-07
-6.43423e-07
4.56097e-07
7.26429e-07
8.46714e-07
-1.71963e-07
5.16528e-08
-6.32571e-07
5.1387e-07
-1.43041e-06
1.14541e-06
-2.62133e-06
1.92893e-06
-4.16743e-06
2.76216e-06
-5.88666e-06
3.43502e-06
-7.52227e-06
3.72498e-06
-8.87342e-06
3.52582e-06
-9.84347e-06
2.86615e-06
-1.03976e-05
1.84176e-06
-1.04945e-05
5.46913e-07
-1.01349e-05
-8.8468e-07
-9.3223e-06
-2.36711e-06
-8.01122e-06
-3.77516e-06
-6.18602e-06
-4.86811e-06
-3.95062e-06
-5.25149e-06
-1.67364e-06
-4.45221e-06
-7.59716e-08
-2.24109e-06
2.75475e-07
3.74983e-07
1.12219e-06
-4.27619e-07
4.79272e-07
-1.29137e-06
1.37762e-06
-2.52908e-06
2.38312e-06
-4.12307e-06
3.52292e-06
-5.92837e-06
4.56746e-06
-7.70655e-06
5.2132e-06
-9.2465e-06
5.26493e-06
-1.04461e-05
4.72545e-06
-1.12941e-05
3.71414e-06
-1.18051e-05
2.35274e-06
-1.19637e-05
7.05521e-07
-1.17924e-05
-1.05595e-06
-1.12814e-05
-2.87813e-06
-1.03356e-05
-4.721e-06
-8.83904e-06
-6.36464e-06
-6.6836e-06
-7.40693e-06
-3.9428e-06
-7.19301e-06
-1.21887e-06
-4.96502e-06
1.16995e-07
-9.60882e-07
1.23918e-06
-6.75784e-07
1.15506e-06
-1.86506e-06
2.5669e-06
-3.38133e-06
3.89938e-06
-5.1275e-06
5.26909e-06
-6.90587e-06
6.34583e-06
-8.49964e-06
6.80698e-06
-9.77987e-06
6.54516e-06
-1.07208e-05
5.6664e-06
-1.13533e-05
4.34658e-06
-1.17296e-05
2.72909e-06
-1.1912e-05
8.87958e-07
-1.19154e-05
-1.05256e-06
-1.17299e-05
-3.06364e-06
-1.12758e-05
-5.17511e-06
-1.0381e-05
-7.25949e-06
-8.78215e-06
-9.00574e-06
-6.23323e-06
-9.74193e-06
-2.88555e-06
-8.31271e-06
-2.26186e-07
-3.62024e-06
1.013e-06
-8.29421e-07
1.98448e-06
-2.18511e-06
3.92259e-06
-3.76901e-06
5.48329e-06
-5.43174e-06
6.93182e-06
-6.97955e-06
7.89364e-06
-8.2517e-06
8.07913e-06
-9.1843e-06
7.47775e-06
-9.79849e-06
6.28059e-06
-1.01582e-05
4.70628e-06
-1.03478e-05
2.91869e-06
-1.04723e-05
1.01246e-06
-1.05651e-05
-9.5977e-07
-1.06168e-05
-3.01193e-06
-1.06036e-05
-5.18834e-06
-1.03761e-05
-7.48692e-06
-9.61631e-06
-9.76555e-06
-7.86578e-06
-1.14925e-05
-4.7846e-06
-1.13939e-05
-1.02747e-06
-7.37737e-06
-1.44734e-08
-8.43887e-07
2.82836e-06
-2.18262e-06
5.26132e-06
-3.64898e-06
6.94964e-06
-5.07432e-06
8.35717e-06
-6.30149e-06
9.1208e-06
-7.22528e-06
9.00293e-06
-7.82849e-06
8.08096e-06
-8.16168e-06
6.61378e-06
-8.30967e-06
4.85427e-06
-8.36588e-06
2.97489e-06
-8.41752e-06
1.0641e-06
-8.5097e-06
-8.67588e-07
-8.65461e-06
-2.86702e-06
-8.86936e-06
-4.97358e-06
-9.0949e-06
-7.26139e-06
-9.08763e-06
-9.77282e-06
-8.33163e-06
-1.22485e-05
-6.12703e-06
-1.35985e-05
-2.19483e-06
-1.13096e-05
-2.2093e-06
-7.17773e-07
3.54614e-06
-1.88434e-06
6.42789e-06
-3.11267e-06
8.17798e-06
-4.2346e-06
9.47909e-06
-5.13818e-06
1.00244e-05
-5.76617e-06
9.63091e-06
-6.13239e-06
8.44718e-06
-6.30182e-06
6.7832e-06
-6.36095e-06
4.9134e-06
-6.38941e-06
3.00335e-06
-6.43452e-06
1.10921e-06
-6.51679e-06
-7.85326e-07
-6.66058e-06
-2.72323e-06
-6.90718e-06
-4.72699e-06
-7.27944e-06
-6.88912e-06
-7.67848e-06
-9.37378e-06
-7.66856e-06
-1.22584e-05
-6.43461e-06
-1.48324e-05
-3.30972e-06
-1.44345e-05
-5.51902e-06
-4.85906e-07
4.03204e-06
-1.37732e-06
7.31931e-06
-2.30816e-06
9.10881e-06
-3.11791e-06
1.02888e-05
-3.73535e-06
1.06418e-05
-4.14099e-06
1.00366e-05
-4.36567e-06
8.67186e-06
-4.47306e-06
6.89059e-06
-4.53486e-06
4.9752e-06
-4.6014e-06
3.06989e-06
-4.68675e-06
1.19457e-06
-4.78704e-06
-6.85038e-07
-4.91792e-06
-2.59235e-06
-5.11761e-06
-4.5273e-06
-5.46205e-06
-6.54468e-06
-5.97159e-06
-8.86424e-06
-6.39541e-06
-1.18346e-05
-5.95851e-06
-1.52693e-05
-3.7604e-06
-1.66326e-05
-9.27943e-06
-1.90847e-07
4.22289e-06
-7.51624e-07
7.88008e-06
-1.36427e-06
9.72146e-06
-1.87714e-06
1.08017e-05
-2.24937e-06
1.10141e-05
-2.48821e-06
1.02754e-05
-2.62922e-06
8.81287e-06
-2.72211e-06
6.98348e-06
-2.81322e-06
5.06631e-06
-2.92734e-06
3.18401e-06
-3.06287e-06
1.33009e-06
-3.20612e-06
-5.41789e-07
-3.35629e-06
-2.44218e-06
-3.53329e-06
-4.35029e-06
-3.81299e-06
-6.26498e-06
-4.30526e-06
-8.37196e-06
-4.93781e-06
-1.1202e-05
-5.05288e-06
-1.51543e-05
-3.49146e-06
-1.8194e-05
-1.27709e-05
1.10771e-07
4.11212e-06
-9.16516e-08
8.08251e-06
-3.94663e-07
1.00245e-05
-6.35991e-07
1.1043e-05
-7.90562e-07
1.11686e-05
-8.80704e-07
1.03655e-05
-9.44058e-07
8.87623e-06
-1.01627e-06
7.05569e-06
-1.11863e-06
5.16867e-06
-1.25614e-06
3.32152e-06
-1.42449e-06
1.49844e-06
-1.61552e-06
-3.50762e-07
-1.82093e-06
-2.23676e-06
-2.0426e-06
-4.12863e-06
-2.32467e-06
-5.98291e-06
-2.79646e-06
-7.90018e-06
-3.52555e-06
-1.04729e-05
-4.01483e-06
-1.4665e-05
-3.00856e-06
-1.92003e-05
-1.57794e-05
3.59271e-07
3.75285e-06
5.0529e-07
7.93649e-06
5.33908e-07
9.99586e-06
5.72594e-07
1.10043e-05
6.37328e-07
1.11039e-05
6.97178e-07
1.03057e-05
7.20005e-07
8.8534e-06
6.90305e-07
7.08539e-06
6.0697e-07
5.25201e-06
4.75426e-07
3.45306e-06
2.98181e-07
1.67569e-06
7.21153e-08
-1.24696e-07
-2.00247e-07
-1.9644e-06
-5.2037e-07
-3.80851e-06
-9.01438e-07
-5.60184e-06
-1.41308e-06
-7.38853e-06
-2.22494e-06
-9.66108e-06
-2.99941e-06
-1.38905e-05
-2.48763e-06
-1.9712e-05
-1.82671e-05
5.39029e-07
3.21382e-06
1.00417e-06
7.47134e-06
1.33809e-06
9.66194e-06
1.65857e-06
1.06839e-05
1.96637e-06
1.07961e-05
2.20922e-06
1.00628e-05
2.35615e-06
8.70646e-06
2.40722e-06
7.03432e-06
2.37726e-06
5.28197e-06
2.27751e-06
3.55282e-06
2.10497e-06
1.84822e-06
1.84101e-06
1.39265e-07
1.49223e-06
-1.61562e-06
1.05663e-06
-3.37291e-06
5.34594e-07
-5.0798e-06
-1.41755e-07
-6.71218e-06
-1.03962e-06
-8.76321e-06
-2.02501e-06
-1.29051e-05
-1.97871e-06
-1.97583e-05
-2.02458e-05
6.131e-07
2.60072e-06
1.33712e-06
6.74733e-06
1.96037e-06
9.03869e-06
2.56249e-06
1.00817e-05
3.13257e-06
1.0226e-05
3.60548e-06
9.58992e-06
3.93712e-06
8.37482e-06
4.12448e-06
6.84696e-06
4.18691e-06
5.21954e-06
4.14066e-06
3.59907e-06
3.98229e-06
2.00659e-06
3.69672e-06
4.24835e-07
3.26699e-06
-1.18589e-06
2.69702e-06
-2.80295e-06
1.99148e-06
-4.37426e-06
1.16701e-06
-5.88771e-06
1.12623e-07
-7.70883e-06
-1.11349e-06
-1.1679e-05
-1.50353e-06
-1.93683e-05
-2.17493e-05
5.5671e-07
2.04401e-06
1.41438e-06
5.88965e-06
2.27435e-06
8.17872e-06
3.15572e-06
9.20038e-06
4.01988e-06
9.36187e-06
4.77938e-06
8.83043e-06
5.36564e-06
7.78855e-06
5.75886e-06
6.45375e-06
5.9707e-06
5.0077e-06
6.01745e-06
3.55232e-06
5.89925e-06
2.12479e-06
5.59892e-06
7.25168e-07
5.09122e-06
-6.78193e-07
4.38571e-06
-2.09744e-06
3.48254e-06
-3.47109e-06
2.42536e-06
-4.83053e-06
1.16235e-06
-6.44581e-06
-3.05202e-07
-1.02115e-05
-1.02625e-06
-1.86472e-05
-2.27756e-05
3.82529e-07
1.66148e-06
1.22865e-06
5.04353e-06
2.29962e-06
7.10775e-06
3.46646e-06
8.03355e-06
4.64601e-06
8.18231e-06
5.72497e-06
7.75147e-06
6.60911e-06
6.90441e-06
7.25713e-06
5.80573e-06
7.66488e-06
4.59995e-06
7.84151e-06
3.3757e-06
7.78905e-06
2.17725e-06
7.50137e-06
1.01285e-06
6.92263e-06
-9.94451e-08
6.08776e-06
-1.26257e-06
4.98462e-06
-2.36795e-06
3.67946e-06
-3.52538e-06
2.22928e-06
-4.99563e-06
6.69386e-07
-8.65158e-06
-2.86527e-07
-1.76913e-05
-2.30621e-05
3.1189e-08
1.63029e-06
5.94189e-07
4.48053e-06
1.74716e-06
5.95478e-06
3.19598e-06
6.58472e-06
4.73673e-06
6.64156e-06
6.19018e-06
6.29803e-06
7.42958e-06
5.665e-06
8.39587e-06
4.83944e-06
9.06184e-06
3.93398e-06
9.42761e-06
3.00993e-06
9.48445e-06
2.1204e-06
9.23307e-06
1.26423e-06
8.668e-06
4.65621e-07
7.74088e-06
-3.35449e-07
6.50661e-06
-1.13368e-06
5.01911e-06
-2.03788e-06
3.45419e-06
-3.4307e-06
1.94632e-06
-7.14372e-06
5.34766e-07
-1.62798e-05
-2.25273e-05
-4.49938e-07
2.08023e-06
-1.69423e-08
4.04754e-06
1.11455e-06
4.82328e-06
2.76601e-06
4.93326e-06
4.60573e-06
4.80184e-06
6.37439e-06
4.52936e-06
7.91616e-06
4.12324e-06
9.16221e-06
3.59339e-06
1.0067e-05
3.02916e-06
1.06318e-05
2.44516e-06
1.08467e-05
1.90547e-06
1.07278e-05
1.38321e-06
1.02699e-05
9.23441e-07
9.48549e-06
4.49011e-07
8.40302e-06
-5.12148e-08
7.06906e-06
-7.03923e-07
5.70129e-06
-2.06292e-06
4.13324e-06
-5.57566e-06
1.91785e-06
-1.40644e-05
-2.06095e-05
-4.11051e-06
6.19074e-06
-3.67375e-06
3.61078e-06
-1.5856e-06
2.73513e-06
8.30205e-07
2.51746e-06
3.2216e-06
2.41045e-06
5.49291e-06
2.25805e-06
7.54666e-06
2.06949e-06
9.31307e-06
1.82697e-06
1.07521e-05
1.59016e-06
1.18692e-05
1.32801e-06
1.26655e-05
1.10919e-06
1.31736e-05
8.75117e-07
1.33884e-05
7.08637e-07
1.33361e-05
5.01278e-07
1.29657e-05
3.19207e-07
1.23132e-05
-5.14317e-08
1.14334e-05
-1.18312e-06
9.8797e-06
-4.02195e-06
5.54064e-06
-9.72533e-06
-1.50688e-05
6.19074e-06
9.80151e-06
1.25366e-05
1.50541e-05
1.74646e-05
1.97226e-05
2.17921e-05
2.36191e-05
2.52092e-05
2.65372e-05
2.76464e-05
2.85215e-05
2.92302e-05
2.97315e-05
3.00507e-05
2.99992e-05
2.88161e-05
2.47942e-05
1.50688e-05
)
;

boundaryField
{
    movingWall
    {
        type            calculated;
        value           uniform 0;
    }
    fixedWalls
    {
        type            calculated;
        value           uniform 0;
    }
    frontAndBack
    {
        type            empty;
        value           nonuniform List<scalar> 0();
    }
}


// ************************************************************************* //
