/*--------------------------------*- C++ -*----------------------------------*\
| =========                 |                                                 |
| \\      /  F ield         | OpenFOAM: The Open Source CFD Toolbox           |
|  \\    /   O peration     | Version:  2212                                  |
|   \\  /    A nd           | Website:  www.openfoam.com                      |
|    \\/     M anipulation  |                                                 |
\*---------------------------------------------------------------------------*/
FoamFile
{
    version     2.0;
    format      ascii;
    arch        "LSB;label=32;scalar=64";
    class       surfaceScalarField;
    location    "4.405";
    object      phi;
}
// * * * * * * * * * * * * * * * * * * * * * * * * * * * * * * * * * * * * * //

dimensions      [0 3 -1 0 0 0 0];

oriented        oriented;

internalField   nonuniform List<scalar> 
760
(
1.54447e-07
-1.54443e-07
2.90085e-07
-1.35638e-07
3.0562e-07
-1.55345e-08
1.79425e-07
1.26195e-07
-1.23406e-07
3.02831e-07
-6.6616e-07
5.42754e-07
-1.48062e-06
8.14456e-07
-2.48057e-06
9.99955e-07
-3.46577e-06
9.85195e-07
-4.20435e-06
7.38583e-07
-4.52946e-06
3.25112e-07
-4.34397e-06
-1.85487e-07
-3.59091e-06
-7.53062e-07
-2.38355e-06
-1.20736e-06
-9.50865e-07
-1.43268e-06
3.33522e-07
-1.28439e-06
1.07752e-06
-7.43994e-07
1.02587e-06
5.16484e-08
4.58508e-07
5.6736e-07
4.58509e-07
1.22217e-07
-2.7666e-07
6.95446e-08
-8.29653e-08
-3.01536e-07
3.55546e-07
-1.07969e-06
9.04353e-07
-2.30964e-06
1.53277e-06
-3.91177e-06
2.14489e-06
-5.63782e-06
2.54051e-06
-7.17652e-06
2.53865e-06
-8.30373e-06
2.11241e-06
-8.90945e-06
1.3443e-06
-8.94642e-06
3.62088e-07
-8.3918e-06
-7.40109e-07
-7.27671e-06
-1.86816e-06
-5.63374e-06
-2.85033e-06
-3.60601e-06
-3.46041e-06
-1.49694e-06
-3.39346e-06
1.68256e-07
-2.40919e-06
8.50939e-07
-6.31034e-07
5.22543e-07
8.95756e-07
9.81052e-07
-1.29662e-07
-1.46998e-07
-6.35591e-07
4.22963e-07
-1.62209e-06
1.34204e-06
-3.12983e-06
2.4121e-06
-5.03462e-06
3.43756e-06
-7.03985e-06
4.15011e-06
-8.83197e-06
4.33263e-06
-1.02309e-05
3.9376e-06
-1.11846e-05
3.06612e-06
-1.16854e-05
1.84503e-06
-1.16821e-05
3.58856e-07
-1.12273e-05
-1.19494e-06
-1.0301e-05
-2.79444e-06
-8.84887e-06
-4.30248e-06
-6.85055e-06
-5.45873e-06
-4.39444e-06
-5.84957e-06
-1.87839e-06
-4.92524e-06
-9.00705e-08
-2.41935e-06
2.93152e-07
5.12534e-07
1.2742e-06
-4.99426e-07
3.52428e-07
-1.55447e-06
1.478e-06
-3.10508e-06
2.89266e-06
-5.05521e-06
4.36222e-06
-7.14729e-06
5.52965e-06
-9.07562e-06
6.07844e-06
-1.06383e-05
5.89536e-06
-1.17924e-05
5.09161e-06
-1.25655e-05
3.83926e-06
-1.29927e-05
2.27222e-06
-1.30595e-05
4.257e-07
-1.28234e-05
-1.43104e-06
-1.22464e-05
-3.37145e-06
-1.12265e-05
-5.32236e-06
-9.63257e-06
-7.0527e-06
-7.33976e-06
-8.14238e-06
-4.38621e-06
-7.87879e-06
-1.37695e-06
-5.42862e-06
1.19203e-07
-9.83617e-07
1.39341e-06
-8.57359e-07
1.20979e-06
-2.34843e-06
2.96907e-06
-4.20796e-06
4.75219e-06
-6.24307e-06
6.39733e-06
-8.17485e-06
7.46143e-06
-9.78137e-06
7.68496e-06
-1.09853e-05
7.09929e-06
-1.18127e-05
5.91897e-06
-1.23254e-05
4.352e-06
-1.25966e-05
2.54347e-06
-1.27171e-05
5.46175e-07
-1.26747e-05
-1.47349e-06
-1.24598e-05
-3.58635e-06
-1.19928e-05
-5.78929e-06
-1.10871e-05
-7.95842e-06
-9.45462e-06
-9.77487e-06
-6.7969e-06
-1.05365e-05
-3.21297e-06
-9.01255e-06
-2.62168e-07
-3.93441e-06
1.13124e-06
-1.07938e-06
2.28917e-06
-2.76589e-06
4.65558e-06
-4.64756e-06
6.63386e-06
-6.49439e-06
8.24415e-06
-8.08325e-06
9.05029e-06
-9.28284e-06
8.88455e-06
-1.00882e-05
7.90461e-06
-1.05639e-05
6.39474e-06
-1.08007e-05
4.58877e-06
-1.0899e-05
2.64178e-06
-1.09807e-05
6.27874e-07
-1.10342e-05
-1.41998e-06
-1.10747e-05
-3.54589e-06
-1.10722e-05
-5.79176e-06
-1.08721e-05
-8.15856e-06
-1.01463e-05
-1.05006e-05
-8.40133e-06
-1.22815e-05
-5.22352e-06
-1.21904e-05
-1.15534e-06
-8.00259e-06
-2.41033e-08
-1.10191e-06
3.39108e-06
-2.73843e-06
6.2921e-06
-4.42523e-06
8.32066e-06
-5.95145e-06
9.77037e-06
-7.15741e-06
1.02563e-05
-7.97992e-06
9.70707e-06
-8.45568e-06
8.38037e-06
-8.67136e-06
6.61042e-06
-8.73101e-06
4.64841e-06
-8.7328e-06
2.64357e-06
-8.76071e-06
6.55782e-07
-8.83428e-06
-1.3464e-06
-8.9732e-06
-3.40697e-06
-9.18829e-06
-5.57667e-06
-9.42136e-06
-7.9255e-06
-9.43912e-06
-1.04829e-05
-8.72168e-06
-1.29989e-05
-6.51357e-06
-1.43985e-05
-2.41388e-06
-1.21023e-05
-2.43799e-06
-9.27698e-07
4.31878e-06
-2.32941e-06
7.69381e-06
-3.70776e-06
9.69901e-06
-4.87944e-06
1.09421e-05
-5.74334e-06
1.11201e-05
-6.28165e-06
1.02454e-05
-6.55063e-06
8.64935e-06
-6.64114e-06
6.70093e-06
-6.65011e-06
4.65738e-06
-6.65187e-06
2.64534e-06
-6.68368e-06
6.87592e-07
-6.76331e-06
-1.26678e-06
-6.91217e-06
-3.25811e-06
-7.16069e-06
-5.32815e-06
-7.52488e-06
-7.56131e-06
-7.9113e-06
-1.00965e-05
-7.9076e-06
-1.30026e-05
-6.69623e-06
-1.56098e-05
-3.57195e-06
-1.52265e-05
-6.00994e-06
-6.19096e-07
4.93788e-06
-1.67412e-06
8.74883e-06
-2.70076e-06
1.07256e-05
-3.53418e-06
1.17755e-05
-4.11847e-06
1.17044e-05
-4.46301e-06
1.05899e-05
-4.62606e-06
8.8124e-06
-4.68615e-06
6.76102e-06
-4.71639e-06
4.68761e-06
-4.76152e-06
2.69047e-06
-4.83238e-06
7.58451e-07
-4.93598e-06
-1.16318e-06
-5.08266e-06
-3.11142e-06
-5.30151e-06
-5.1093e-06
-5.6475e-06
-7.21533e-06
-6.13249e-06
-9.61146e-06
-6.53482e-06
-1.26003e-05
-6.11158e-06
-1.60331e-05
-3.91204e-06
-1.74261e-05
-9.92198e-06
-2.29619e-07
5.1675e-06
-8.85427e-07
9.40464e-06
-1.5527e-06
1.13929e-05
-2.07844e-06
1.23012e-05
-2.43447e-06
1.20605e-05
-2.64466e-06
1.08001e-05
-2.757e-06
8.92474e-06
-2.82492e-06
6.82893e-06
-2.89369e-06
4.75639e-06
-2.98589e-06
2.78267e-06
-3.10448e-06
8.7704e-07
-3.24944e-06
-1.01823e-06
-3.42133e-06
-2.93953e-06
-3.63301e-06
-4.89761e-06
-3.93634e-06
-6.912e-06
-4.413e-06
-9.1348e-06
-5.00728e-06
-1.2006e-05
-5.11347e-06
-1.59269e-05
-3.55155e-06
-1.8988e-05
-1.34735e-05
1.63223e-07
5.00427e-06
-6.81362e-08
9.636e-06
-3.98768e-07
1.17236e-05
-6.4769e-07
1.25501e-05
-8.0049e-07
1.22133e-05
-8.8812e-07
1.08877e-05
-9.50116e-07
8.98674e-06
-1.01853e-06
6.89735e-06
-1.11015e-06
4.848e-06
-1.23267e-06
2.90519e-06
-1.38836e-06
1.03273e-06
-1.57941e-06
-8.27178e-07
-1.8048e-06
-2.71415e-06
-2.06311e-06
-4.6393e-06
-2.38298e-06
-6.59213e-06
-2.85801e-06
-8.65977e-06
-3.5505e-06
-1.13135e-05
-4.02051e-06
-1.54569e-05
-3.0226e-06
-1.99859e-05
-1.64961e-05
4.97907e-07
4.50636e-06
6.95076e-07
9.43883e-06
7.38263e-07
1.16804e-05
7.7414e-07
1.25143e-05
8.19539e-07
1.21679e-05
8.48806e-07
1.08585e-05
8.41889e-07
8.99365e-06
7.90441e-07
6.9488e-06
6.96067e-07
4.94238e-06
5.60881e-07
3.04038e-06
3.80346e-07
1.21327e-06
1.48271e-07
-5.95103e-07
-1.37499e-07
-2.42837e-06
-4.83654e-07
-4.29315e-06
-8.95534e-07
-6.18025e-06
-1.41947e-06
-8.13583e-06
-2.20268e-06
-1.05303e-05
-2.95526e-06
-1.47043e-05
-2.46169e-06
-2.04795e-05
-1.89578e-05
7.51255e-07
3.75511e-06
1.34605e-06
8.84404e-06
1.73721e-06
1.12892e-05
2.06565e-06
1.21858e-05
2.33816e-06
1.18954e-05
2.52391e-06
1.06727e-05
2.61419e-06
8.90338e-06
2.61973e-06
6.94326e-06
2.55519e-06
5.00692e-06
2.42843e-06
3.16714e-06
2.2329e-06
1.4088e-06
1.95475e-06
-3.16953e-07
1.59341e-06
-2.06704e-06
1.1438e-06
-3.84353e-06
6.00721e-07
-5.63717e-06
-8.89214e-08
-7.44619e-06
-9.6304e-07
-9.6562e-06
-1.92633e-06
-1.3741e-05
-1.92861e-06
-2.04772e-05
-2.08864e-05
8.6457e-07
2.89054e-06
1.79903e-06
7.90958e-06
2.53754e-06
1.05507e-05
3.17619e-06
1.15472e-05
3.72203e-06
1.13495e-05
4.13122e-06
1.02635e-05
4.38731e-06
8.64729e-06
4.5043e-06
6.82627e-06
4.5059e-06
5.00532e-06
4.40822e-06
3.26482e-06
4.20997e-06
1.60705e-06
3.88219e-06
1.08224e-08
3.44012e-06
-1.62497e-06
2.86063e-06
-3.26404e-06
2.14358e-06
-4.92012e-06
1.30596e-06
-6.60857e-06
2.55485e-07
-8.60572e-06
-9.68537e-07
-1.2517e-05
-1.43212e-06
-2.00136e-05
-2.23186e-05
8.0044e-07
2.0901e-06
1.94132e-06
6.7687e-06
2.97922e-06
9.51279e-06
3.94906e-06
1.05773e-05
4.82322e-06
1.04754e-05
5.53523e-06
9.55152e-06
6.04546e-06
8.13706e-06
6.35686e-06
6.51488e-06
6.49103e-06
4.87115e-06
6.46717e-06
3.28868e-06
6.28499e-06
1.78922e-06
5.93973e-06
3.56085e-07
5.4028e-06
-1.08803e-06
4.67845e-06
-2.53969e-06
3.75867e-06
-4.00035e-06
2.67165e-06
-5.52155e-06
1.3747e-06
-7.30877e-06
-1.63041e-07
-1.09793e-05
-9.19512e-07
-1.92572e-05
-2.32381e-05
5.7308e-07
1.51702e-06
1.74741e-06
5.59437e-06
3.07965e-06
8.18054e-06
4.42545e-06
9.23153e-06
5.68743e-06
9.21338e-06
6.76673e-06
8.47222e-06
7.59762e-06
7.30617e-06
8.16736e-06
5.94515e-06
8.48883e-06
4.54968e-06
8.57977e-06
3.19773e-06
8.4475e-06
1.9215e-06
8.09002e-06
7.13561e-07
7.46398e-06
-4.61985e-07
6.58595e-06
-1.66167e-06
5.44297e-06
-2.85736e-06
4.07592e-06
-4.1545e-06
2.55364e-06
-5.78649e-06
9.43588e-07
-9.3692e-06
-1.50629e-07
-1.81629e-05
-2.33887e-05
1.49549e-07
1.36747e-06
1.03034e-06
4.71359e-06
2.50069e-06
6.71019e-06
4.21615e-06
7.51607e-06
5.9324e-06
7.49714e-06
7.46207e-06
6.94255e-06
8.70229e-06
6.06594e-06
9.62332e-06
5.02412e-06
1.02205e-05
3.95252e-06
1.05062e-05
2.91203e-06
1.04868e-05
1.94092e-06
1.01684e-05
1.03192e-06
9.50809e-06
1.98333e-07
8.5234e-06
-6.76982e-07
7.20733e-06
-1.54129e-06
5.61042e-06
-2.55759e-06
3.8914e-06
-4.06747e-06
2.22868e-06
-7.70648e-06
6.4851e-07
-1.65828e-05
-2.27402e-05
-5.15438e-07
1.88291e-06
1.97257e-07
4.00089e-06
1.7451e-06
5.16235e-06
3.80041e-06
5.46076e-06
5.94823e-06
5.34931e-06
7.90303e-06
4.98775e-06
9.52815e-06
4.44083e-06
1.07824e-05
3.7699e-06
1.16483e-05
3.08662e-06
1.21429e-05
2.41741e-06
1.22706e-05
1.81321e-06
1.20518e-05
1.25073e-06
1.15085e-05
7.41596e-07
1.06147e-05
2.16833e-07
9.37445e-06
-3.01045e-07
7.85767e-06
-1.04081e-06
6.25002e-06
-2.45982e-06
4.44742e-06
-5.90388e-06
2.05176e-06
-1.41871e-05
-2.06884e-05
-4.17735e-06
6.06026e-06
-3.6411e-06
3.46464e-06
-1.25127e-06
2.77251e-06
1.54011e-06
2.66937e-06
4.27228e-06
2.61714e-06
6.79987e-06
2.46016e-06
9.01051e-06
2.23018e-06
1.08445e-05
1.93594e-06
1.22839e-05
1.64722e-06
1.3356e-05
1.34532e-06
1.4078e-05
1.09115e-06
1.44946e-05
8.34129e-07
1.45943e-05
6.41922e-07
1.43873e-05
4.23806e-07
1.38652e-05
2.21056e-07
1.30432e-05
-2.18759e-07
1.19113e-05
-1.32796e-06
1.01079e-05
-4.10052e-06
5.63606e-06
-9.71522e-06
-1.50524e-05
6.06026e-06
9.52491e-06
1.22974e-05
1.49668e-05
1.75839e-05
2.00441e-05
2.22743e-05
2.42102e-05
2.58574e-05
2.72028e-05
2.82939e-05
2.9128e-05
2.977e-05
3.01938e-05
3.04148e-05
3.01961e-05
2.88681e-05
2.47676e-05
1.50524e-05
)
;

boundaryField
{
    movingWall
    {
        type            calculated;
        value           uniform 0;
    }
    fixedWalls
    {
        type            calculated;
        value           uniform 0;
    }
    frontAndBack
    {
        type            empty;
        value           nonuniform List<scalar> 0();
    }
}


// ************************************************************************* //
