/*--------------------------------*- C++ -*----------------------------------*\
| =========                 |                                                 |
| \\      /  F ield         | OpenFOAM: The Open Source CFD Toolbox           |
|  \\    /   O peration     | Version:  2212                                  |
|   \\  /    A nd           | Website:  www.openfoam.com                      |
|    \\/     M anipulation  |                                                 |
\*---------------------------------------------------------------------------*/
FoamFile
{
    version     2.0;
    format      ascii;
    arch        "LSB;label=32;scalar=64";
    class       surfaceScalarField;
    location    "4.13";
    object      phi;
}
// * * * * * * * * * * * * * * * * * * * * * * * * * * * * * * * * * * * * * //

dimensions      [0 3 -1 0 0 0 0];

oriented        oriented;

internalField   nonuniform List<scalar> 
760
(
1.53744e-07
-1.53743e-07
2.8859e-07
-1.34846e-07
3.03781e-07
-1.51911e-08
1.77645e-07
1.26136e-07
-1.24694e-07
3.0234e-07
-6.66286e-07
5.41591e-07
-1.47882e-06
8.12532e-07
-2.4766e-06
9.97785e-07
-3.46015e-06
9.83543e-07
-4.1981e-06
7.37957e-07
-4.52359e-06
3.25485e-07
-4.33956e-06
-1.84027e-07
-3.58865e-06
-7.50915e-07
-2.38372e-06
-1.20493e-06
-9.53274e-07
-1.43045e-06
3.29659e-07
-1.28293e-06
1.07377e-06
-7.44109e-07
1.02351e-06
5.02559e-08
4.57655e-07
5.65857e-07
4.57656e-07
1.21062e-07
-2.74805e-07
6.75062e-08
-8.12905e-08
-3.033e-07
3.55615e-07
-1.07989e-06
9.02728e-07
-2.30696e-06
1.52941e-06
-3.90545e-06
2.14008e-06
-5.62822e-06
2.5353e-06
-7.16485e-06
2.53441e-06
-8.29126e-06
2.10996e-06
-8.8972e-06
1.3439e-06
-8.93527e-06
3.63548e-07
-8.3824e-06
-7.36894e-07
-7.26966e-06
-1.86365e-06
-5.62944e-06
-2.84514e-06
-3.60454e-06
-3.45535e-06
-1.49789e-06
-3.38959e-06
1.65655e-07
-2.40765e-06
8.48609e-07
-6.32698e-07
5.21552e-07
8.92914e-07
9.79208e-07
-1.30423e-07
-1.44382e-07
-6.36084e-07
4.24371e-07
-1.62068e-06
1.34021e-06
-3.12489e-06
2.40694e-06
-5.02537e-06
3.4299e-06
-7.02685e-06
4.14155e-06
-8.81651e-06
4.32497e-06
-1.02142e-05
3.93206e-06
-1.11674e-05
3.06317e-06
-1.16683e-05
1.8448e-06
-1.16662e-05
3.61475e-07
-1.12127e-05
-1.19037e-06
-1.02884e-05
-2.78802e-06
-8.83869e-06
-4.29482e-06
-6.8433e-06
-5.45074e-06
-4.39042e-06
-5.84247e-06
-1.87732e-06
-4.92075e-06
-9.08085e-08
-2.41921e-06
2.92713e-07
5.09392e-07
1.27192e-06
-4.98858e-07
3.54475e-07
-1.552e-06
1.47751e-06
-3.09907e-06
2.88728e-06
-5.04476e-06
4.35263e-06
-7.13278e-06
5.51792e-06
-9.05828e-06
6.06705e-06
-1.06195e-05
5.88615e-06
-1.17727e-05
5.0853e-06
-1.25456e-05
3.83607e-06
-1.2973e-05
2.2722e-06
-1.30408e-05
4.2924e-07
-1.28057e-05
-1.42539e-06
-1.22303e-05
-3.36344e-06
-1.12125e-05
-5.31262e-06
-9.6211e-06
-7.04217e-06
-7.33134e-06
-8.13223e-06
-4.38142e-06
-7.87067e-06
-1.37599e-06
-5.42465e-06
1.18808e-07
-9.85401e-07
1.39073e-06
-8.55438e-07
1.20991e-06
-2.34304e-06
2.96512e-06
-4.19823e-06
4.74246e-06
-6.22912e-06
6.38352e-06
-8.15779e-06
7.44659e-06
-9.76252e-06
7.67179e-06
-1.09656e-05
7.08918e-06
-1.17925e-05
5.91223e-06
-1.23051e-05
4.34869e-06
-1.25765e-05
2.54362e-06
-1.26973e-05
5.50008e-07
-1.26558e-05
-1.46686e-06
-1.24424e-05
-3.57691e-06
-1.19772e-05
-5.7778e-06
-1.10735e-05
-7.94588e-06
-9.44334e-06
-9.76235e-06
-6.78881e-06
-1.05252e-05
-3.20925e-06
-9.0042e-06
-2.62226e-07
-3.93243e-06
1.1285e-06
-1.07636e-06
2.28627e-06
-2.7587e-06
4.64745e-06
-4.6361e-06
6.61987e-06
-6.47943e-06
8.22685e-06
-8.06606e-06
9.03321e-06
-9.26446e-06
8.87019e-06
-1.00691e-05
7.8938e-06
-1.05443e-05
6.38743e-06
-1.07805e-05
4.58492e-06
-1.08785e-05
2.64157e-06
-1.096e-05
6.31576e-07
-1.10144e-05
-1.41246e-06
-1.10564e-05
-3.53493e-06
-1.10559e-05
-5.77832e-06
-1.08578e-05
-8.14395e-06
-1.01341e-05
-1.04861e-05
-8.39129e-06
-1.2268e-05
-5.21679e-06
-1.21787e-05
-1.15401e-06
-7.99521e-06
-2.55075e-08
-1.09845e-06
3.38473e-06
-2.7308e-06
6.2798e-06
-4.41389e-06
8.30296e-06
-5.9373e-06
9.75026e-06
-7.1415e-06
1.02374e-05
-7.96291e-06
9.6916e-06
-8.43764e-06
8.36853e-06
-8.65209e-06
6.60188e-06
-8.71034e-06
4.64317e-06
-8.71092e-06
2.64216e-06
-8.73831e-06
6.58968e-07
-8.81253e-06
-1.33824e-06
-8.95315e-06
-3.39431e-06
-9.1708e-06
-5.56067e-06
-9.40674e-06
-7.90801e-06
-9.42704e-06
-1.04658e-05
-8.71155e-06
-1.29834e-05
-6.50569e-06
-1.43846e-05
-2.41042e-06
-1.20905e-05
-2.43593e-06
-9.24529e-07
4.30926e-06
-2.32256e-06
7.67783e-06
-3.69785e-06
9.67826e-06
-4.86725e-06
1.09197e-05
-5.72954e-06
1.10997e-05
-6.2665e-06
1.02286e-05
-6.53392e-06
8.63594e-06
-6.62247e-06
6.69044e-06
-6.62935e-06
4.65004e-06
-6.62936e-06
2.64217e-06
-6.66033e-06
6.89935e-07
-6.74026e-06
-1.25831e-06
-6.89071e-06
-3.24386e-06
-7.14203e-06
-5.30935e-06
-7.5098e-06
-7.54023e-06
-7.89973e-06
-1.00759e-05
-7.89863e-06
-1.29846e-05
-6.68902e-06
-1.55942e-05
-3.56672e-06
-1.52128e-05
-6.00265e-06
-6.1673e-07
4.92599e-06
-1.66885e-06
8.72994e-06
-2.69311e-06
1.07025e-05
-3.52465e-06
1.17512e-05
-4.10738e-06
1.16824e-05
-4.45035e-06
1.05715e-05
-4.61152e-06
8.79711e-06
-4.66941e-06
6.74833e-06
-4.69743e-06
4.67805e-06
-4.74078e-06
2.68553e-06
-4.81067e-06
7.59821e-07
-4.91427e-06
-1.15471e-06
-5.06209e-06
-3.09604e-06
-5.2833e-06
-5.08815e-06
-5.63276e-06
-7.19077e-06
-6.12174e-06
-9.58689e-06
-6.52727e-06
-1.2579e-05
-6.10576e-06
-1.60157e-05
-3.90788e-06
-1.74106e-05
-9.91053e-06
-2.28473e-07
5.15446e-06
-8.8232e-07
9.38379e-06
-1.54792e-06
1.13681e-05
-2.07221e-06
1.22755e-05
-2.42683e-06
1.20371e-05
-2.63545e-06
1.07802e-05
-2.74599e-06
8.90765e-06
-2.81193e-06
6.81427e-06
-2.87885e-06
4.74497e-06
-2.96961e-06
2.77629e-06
-3.0873e-06
8.77504e-07
-3.23199e-06
-1.01001e-06
-3.4044e-06
-2.92363e-06
-3.61753e-06
-4.87502e-06
-3.92351e-06
-6.88479e-06
-4.4038e-06
-9.1066e-06
-5.00152e-06
-1.19813e-05
-5.10961e-06
-1.59076e-05
-3.54899e-06
-1.89713e-05
-1.34595e-05
1.62912e-07
4.99155e-06
-6.7518e-08
9.61422e-06
-3.97178e-07
1.16978e-05
-6.45164e-07
1.25235e-05
-7.96904e-07
1.21888e-05
-8.8327e-07
1.08665e-05
-9.43874e-07
8.96825e-06
-1.01093e-06
6.88133e-06
-1.10137e-06
4.83541e-06
-1.22295e-06
2.89787e-06
-1.37791e-06
1.03247e-06
-1.56848e-06
-8.19444e-07
-1.7938e-06
-2.69831e-06
-2.05257e-06
-4.61626e-06
-2.37374e-06
-6.56362e-06
-2.85134e-06
-8.629e-06
-3.5468e-06
-1.12859e-05
-4.01852e-06
-1.54359e-05
-3.02134e-06
-1.99684e-05
-1.64809e-05
4.96179e-07
4.49537e-06
6.92919e-07
9.41748e-06
7.36127e-07
1.16546e-05
7.72328e-07
1.24873e-05
8.1837e-07
1.21428e-05
8.48448e-07
1.08364e-05
8.42286e-07
8.97441e-06
7.91393e-07
6.93222e-06
6.97481e-07
4.92932e-06
5.62716e-07
3.03264e-06
3.82703e-07
1.21248e-06
1.51192e-07
-5.87933e-07
-1.34004e-07
-2.41311e-06
-4.79737e-07
-4.27053e-06
-8.91581e-07
-6.15178e-06
-1.41653e-06
-8.10404e-06
-2.20166e-06
-1.05007e-05
-2.95537e-06
-1.46822e-05
-2.46178e-06
-2.0462e-05
-1.89426e-05
7.48157e-07
3.74721e-06
1.34116e-06
8.82448e-06
1.73131e-06
1.12644e-05
2.05925e-06
1.21593e-05
2.33177e-06
1.18702e-05
2.51776e-06
1.06505e-05
2.60815e-06
8.88402e-06
2.61355e-06
6.92682e-06
2.54871e-06
4.99417e-06
2.42182e-06
3.15952e-06
2.22666e-06
1.40765e-06
1.94935e-06
-3.1062e-07
1.58896e-06
-2.05272e-06
1.14049e-06
-3.82206e-06
5.98558e-07
-5.60985e-06
-9.0389e-08
-7.4151e-06
-9.651e-07
-9.62601e-06
-1.92874e-06
-1.37185e-05
-1.92975e-06
-2.0461e-05
-2.08724e-05
8.60643e-07
2.88657e-06
1.79187e-06
7.89325e-06
2.52823e-06
1.05281e-05
3.16542e-06
1.15221e-05
3.71039e-06
1.13253e-05
4.11903e-06
1.02418e-05
4.37454e-06
8.62851e-06
4.49076e-06
6.81061e-06
4.49153e-06
4.99339e-06
4.39322e-06
3.25783e-06
4.19472e-06
1.60615e-06
3.86849e-06
1.56076e-08
3.42756e-06
-1.61178e-06
2.84998e-06
-3.24449e-06
2.1352e-06
-4.89506e-06
1.29968e-06
-6.57958e-06
2.50596e-07
-8.57693e-06
-9.72742e-07
-1.24952e-05
-1.43411e-06
-1.99997e-05
-2.23065e-05
7.96543e-07
2.09003e-06
1.93287e-06
6.75692e-06
2.96743e-06
9.4935e-06
3.93474e-06
1.05548e-05
4.80702e-06
1.0453e-05
5.51758e-06
9.53125e-06
6.02649e-06
8.1196e-06
6.33652e-06
6.50058e-06
6.46942e-06
4.86048e-06
6.44476e-06
3.2825e-06
6.26271e-06
1.7882e-06
5.91762e-06
3.6069e-07
5.38265e-06
-1.07681e-06
4.66088e-06
-2.52272e-06
3.74433e-06
-3.97851e-06
2.66095e-06
-5.4962e-06
1.36721e-06
-7.28318e-06
-1.67098e-07
-1.09609e-05
-9.22518e-07
-1.92442e-05
-2.3229e-05
5.70124e-07
1.5199e-06
1.73926e-06
5.58779e-06
3.06694e-06
8.16582e-06
4.40879e-06
9.21298e-06
5.66752e-06
9.19425e-06
6.74422e-06
8.45455e-06
7.57292e-06
7.2909e-06
8.14071e-06
5.93278e-06
8.46056e-06
4.54063e-06
8.5505e-06
3.19256e-06
8.41797e-06
1.92073e-06
8.06131e-06
7.17353e-07
7.43738e-06
-4.5289e-07
6.56251e-06
-1.64784e-06
5.42357e-06
-2.83957e-06
4.06142e-06
-4.13404e-06
2.54351e-06
-5.76527e-06
9.36077e-07
-9.35346e-06
-1.54118e-07
-1.8154e-05
-2.33831e-05
1.47867e-07
1.37203e-06
1.0238e-06
4.71186e-06
2.48898e-06
6.70063e-06
4.19938e-06
7.50259e-06
5.91112e-06
7.48251e-06
7.43704e-06
6.92863e-06
8.67413e-06
6.05381e-06
9.59254e-06
5.01437e-06
1.01876e-05
3.94557e-06
1.0472e-05
2.90818e-06
1.04521e-05
1.94059e-06
1.01344e-05
1.03509e-06
9.47688e-06
2.04624e-07
8.49545e-06
-6.66405e-07
7.18415e-06
-1.52828e-06
5.59298e-06
-2.54287e-06
3.87995e-06
-4.05224e-06
2.22192e-06
-7.69543e-06
6.45899e-07
-1.6578e-05
-2.27372e-05
-5.1414e-07
1.88618e-06
1.9489e-07
4.00283e-06
1.73686e-06
5.15866e-06
3.78572e-06
5.45373e-06
5.92745e-06
5.34078e-06
7.87706e-06
4.97902e-06
9.49785e-06
4.43302e-06
1.07487e-05
3.76357e-06
1.1612e-05
3.08225e-06
1.21051e-05
2.41504e-06
1.22327e-05
1.81302e-06
1.20152e-05
1.25254e-06
1.14741e-05
7.45762e-07
1.05844e-05
2.23326e-07
9.34986e-06
-2.93776e-07
7.8393e-06
-1.03231e-06
6.23836e-06
-2.45131e-06
4.44122e-06
-5.89829e-06
2.04918e-06
-1.4186e-05
-2.06881e-05
-4.17589e-06
6.06207e-06
-3.64014e-06
3.46708e-06
-1.25412e-06
2.77263e-06
1.53189e-06
2.66772e-06
4.25837e-06
2.61431e-06
6.78059e-06
2.4568e-06
8.98665e-06
2.22695e-06
1.0817e-05
1.93319e-06
1.2254e-05
1.64526e-06
1.33249e-05
1.34417e-06
1.4047e-05
1.09095e-06
1.44647e-05
8.34814e-07
1.45669e-05
6.43558e-07
1.43642e-05
4.25988e-07
1.38468e-05
2.23671e-07
1.30296e-05
-2.15089e-07
1.19035e-05
-1.32521e-06
1.01048e-05
-4.09962e-06
5.63477e-06
-9.71595e-06
-1.50533e-05
6.06207e-06
9.52915e-06
1.23018e-05
1.49695e-05
1.75838e-05
2.00406e-05
2.22676e-05
2.42008e-05
2.5846e-05
2.71902e-05
2.82811e-05
2.91159e-05
2.97595e-05
3.01855e-05
3.04092e-05
3.01941e-05
2.88689e-05
2.47692e-05
1.50533e-05
)
;

boundaryField
{
    movingWall
    {
        type            calculated;
        value           uniform 0;
    }
    fixedWalls
    {
        type            calculated;
        value           uniform 0;
    }
    frontAndBack
    {
        type            empty;
        value           nonuniform List<scalar> 0();
    }
}


// ************************************************************************* //
