/*--------------------------------*- C++ -*----------------------------------*\
| =========                 |                                                 |
| \\      /  F ield         | OpenFOAM: The Open Source CFD Toolbox           |
|  \\    /   O peration     | Version:  2212                                  |
|   \\  /    A nd           | Website:  www.openfoam.com                      |
|    \\/     M anipulation  |                                                 |
\*---------------------------------------------------------------------------*/
FoamFile
{
    version     2.0;
    format      ascii;
    arch        "LSB;label=32;scalar=64";
    class       volScalarField;
    location    "1.46";
    object      p;
}
// * * * * * * * * * * * * * * * * * * * * * * * * * * * * * * * * * * * * * //

dimensions      [0 2 -2 0 0 0 0];

internalField   nonuniform List<scalar> 
400
(
-3.06545e-09
-0.00010619
-0.000286381
-0.000538655
-0.000847692
-0.00118166
-0.00147567
-0.00162178
-0.00148347
-0.000936782
8.59331e-05
0.00156458
0.0033521
0.00494923
0.00584922
0.00578504
0.00478563
0.00367038
0.00292911
0.00280014
0.000104517
5.27146e-07
-0.000144865
-0.000343536
-0.000590747
-0.000874588
-0.00117539
-0.0014346
-0.00152345
-0.00125777
-0.000470268
0.000880835
0.00255958
0.0041479
0.00511813
0.00514659
0.00433672
0.00322376
0.00261462
0.00256833
0.000301735
0.000143119
-8.50522e-06
-0.000231846
-0.000564729
-0.00104305
-0.00168156
-0.00240958
-0.00303051
-0.00324829
-0.00278485
-0.00157704
0.000146903
0.00199344
0.00341835
0.00395934
0.0035592
0.00268902
0.00192693
0.00180591
0.000424051
0.000220253
2.42554e-05
-0.000322985
-0.000930226
-0.00190143
-0.00326876
-0.00489345
-0.00644074
-0.00746615
-0.00759604
-0.00674355
-0.0050812
-0.0028874
-0.000634325
0.00111183
0.00192866
0.00181497
0.00116161
0.000607797
0.000324356
6.33228e-05
-0.000238525
-0.000846414
-0.00196886
-0.00377664
-0.00625907
-0.00912105
-0.0118434
-0.0138713
-0.0148051
-0.0144995
-0.0130193
-0.0105446
-0.00741517
-0.00415111
-0.00142488
0.000141459
0.000321677
-0.00111357
-0.00017284
-0.000506039
-0.000988156
-0.00200159
-0.00385861
-0.00675337
-0.0105518
-0.0147215
-0.0185466
-0.0214337
-0.0230455
-0.0232356
-0.0219981
-0.0194939
-0.0159038
-0.0114816
-0.00678594
-0.00293963
-0.00138273
-0.00325826
-0.0011755
-0.00159452
-0.00231773
-0.00382937
-0.00651495
-0.0105212
-0.0155228
-0.0207273
-0.0252771
-0.0286089
-0.0304863
-0.030866
-0.0298114
-0.0274894
-0.0239843
-0.0192532
-0.0134269
-0.00756163
-0.00418746
-0.00481156
-0.00267447
-0.00317965
-0.00416178
-0.00616445
-0.00959317
-0.0145039
-0.0203793
-0.0262204
-0.0311153
-0.0345811
-0.0364838
-0.036863
-0.0358592
-0.0336727
-0.030421
-0.0259688
-0.0200527
-0.0131138
-0.00755531
-0.00522526
-0.00452907
-0.00509633
-0.00630131
-0.00869044
-0.012645
-0.0181402
-0.0245286
-0.0306935
-0.0357298
-0.039233
-0.0411216
-0.0414535
-0.0403931
-0.0381864
-0.0350741
-0.0310334
-0.0256383
-0.0186461
-0.0114792
-0.00649714
-0.00651438
-0.00708784
-0.00843876
-0.011049
-0.0152591
-0.0210092
-0.0276133
-0.033916
-0.0390344
-0.0425973
-0.0445188
-0.0448257
-0.0436597
-0.0413023
-0.0381337
-0.0343496
-0.0296405
-0.0233187
-0.0159621
-0.00947465
-0.00839194
-0.00890609
-0.0102984
-0.0129404
-0.0171382
-0.0228463
-0.0294226
-0.0357374
-0.0409212
-0.0445783
-0.0465747
-0.0468848
-0.0456002
-0.0430314
-0.0396826
-0.0359787
-0.0318813
-0.026506
-0.0199409
-0.0131034
-0.00996768
-0.0103719
-0.0116835
-0.0141625
-0.0181032
-0.0235028
-0.029815
-0.0360102
-0.0412214
-0.0449737
-0.0470514
-0.0473852
-0.0459942
-0.043237
-0.0396998
-0.0359807
-0.0323877
-0.0278837
-0.0223152
-0.0156347
-0.0111688
-0.0114025
-0.0124864
-0.0146195
-0.0180803
-0.0229302
-0.0287549
-0.0346791
-0.0398366
-0.0436484
-0.0457985
-0.0461638
-0.0447476
-0.0419006
-0.0382513
-0.0344729
-0.0312906
-0.0273753
-0.0226432
-0.0160912
-0.0119904
-0.0120156
-0.0127222
-0.0143081
-0.017076
-0.0211759
-0.0263384
-0.0318447
-0.036845
-0.0406657
-0.0428854
-0.0433158
-0.0419897
-0.0391803
-0.0355435
-0.0318286
-0.0287702
-0.0251974
-0.0212966
-0.0143694
-0.0124761
-0.0122844
-0.0124837
-0.0133572
-0.0152937
-0.0185242
-0.0229107
-0.0278809
-0.0326286
-0.0364167
-0.0387316
-0.0393153
-0.0381657
-0.0355203
-0.0320224
-0.0284039
-0.0253653
-0.0219329
-0.0192132
-0.0106044
-0.0127263
-0.0123278
-0.0118421
-0.0118708
-0.0129405
-0.0153213
-0.0189507
-0.0233678
-0.0278332
-0.0315843
-0.0340373
-0.0348563
-0.0340017
-0.0316349
-0.0283483
-0.0248021
-0.0216716
-0.0181993
-0.0165337
-0.00354276
-0.0128048
-0.0122628
-0.0109408
-0.0100843
-0.0103541
-0.0120321
-0.0150645
-0.0190409
-0.0232888
-0.0270503
-0.0296997
-0.0308143
-0.0303009
-0.0283054
-0.0252265
-0.0215936
-0.0180088
-0.0138846
-0.0103276
0.0121209
-0.0137134
-0.0122478
-0.00962067
-0.00789653
-0.00759418
-0.00886548
-0.0115891
-0.0153521
-0.0195449
-0.0234233
-0.0263636
-0.0278693
-0.027781
-0.0260804
-0.0230816
-0.0189601
-0.013958
-0.00625053
0.00762811
0.0488486
-0.0119177
-0.0127636
-0.00881914
-0.00610439
-0.00532568
-0.00641505
-0.00907548
-0.0128332
-0.0171308
-0.0212135
-0.0244956
-0.026405
-0.0267498
-0.0252963
-0.0220778
-0.0164237
-0.00708077
0.0113922
0.0486193
0.119132
-0.0295191
-0.0125235
-0.00498739
-0.00248498
-0.0023092
-0.00374659
-0.00663298
-0.0105828
-0.0150721
-0.0193562
-0.0228666
-0.0250428
-0.025666
-0.0243309
-0.0204849
-0.0120606
0.00523729
0.0421174
0.11157
0.215793
)
;

boundaryField
{
    movingWall
    {
        type            zeroGradient;
    }
    fixedWalls
    {
        type            zeroGradient;
    }
    frontAndBack
    {
        type            empty;
    }
}


// ************************************************************************* //
