/*--------------------------------*- C++ -*----------------------------------*\
| =========                 |                                                 |
| \\      /  F ield         | OpenFOAM: The Open Source CFD Toolbox           |
|  \\    /   O peration     | Version:  2212                                  |
|   \\  /    A nd           | Website:  www.openfoam.com                      |
|    \\/     M anipulation  |                                                 |
\*---------------------------------------------------------------------------*/
FoamFile
{
    version     2.0;
    format      ascii;
    arch        "LSB;label=32;scalar=64";
    class       volScalarField;
    location    "1.745";
    object      p;
}
// * * * * * * * * * * * * * * * * * * * * * * * * * * * * * * * * * * * * * //

dimensions      [0 2 -2 0 0 0 0];

internalField   nonuniform List<scalar> 
400
(
-1.49141e-08
-0.000116586
-0.000355903
-0.000695567
-0.00112313
-0.00160075
-0.00204303
-0.00230008
-0.00220797
-0.00163164
-0.000482512
0.00123685
0.00333456
0.00520896
0.00621498
0.00601986
0.00473479
0.00334348
0.00246741
0.00234627
0.00011541
-1.71903e-05
-0.000203267
-0.00046005
-0.000786033
-0.00118827
-0.00165819
-0.0021144
-0.00236714
-0.00216041
-0.00128196
0.00029776
0.00228027
0.00414742
0.0052464
0.0051886
0.0041238
0.00276838
0.0020734
0.00206254
0.000358095
0.000185826
-1.07871e-05
-0.000306139
-0.000774145
-0.0014897
-0.00245686
-0.00353928
-0.0044467
-0.00479923
-0.00428921
-0.00289049
-0.000870087
0.00130046
0.00297056
0.00358904
0.00310073
0.00209481
0.00126197
0.00117122
0.000615341
0.000367297
9.10914e-05
-0.00041924
-0.00134002
-0.00279352
-0.00472662
-0.00685487
-0.00873849
-0.00990616
-0.0100122
-0.00900883
-0.00706803
-0.00452201
-0.00192199
0.000102231
0.0010961
0.00106215
0.000420479
-0.000169605
0.000635332
0.000298026
-0.000166814
-0.00112613
-0.00284259
-0.00540899
-0.0086248
-0.0120115
-0.0150005
-0.017104
-0.0180051
-0.0175714
-0.0158588
-0.0130658
-0.00955468
-0.00587162
-0.00273608
-0.000838744
-0.000483192
-0.00204919
0.000170747
-0.000282485
-0.0010521
-0.0026598
-0.00539641
-0.00924165
-0.013764
-0.0182783
-0.022145
-0.0249325
-0.0264192
-0.0264819
-0.0251131
-0.0224325
-0.0185747
-0.0137659
-0.00857683
-0.004229
-0.00238086
-0.0043443
-0.000943792
-0.00153038
-0.00267387
-0.00500395
-0.00876155
-0.0137505
-0.0192866
-0.0245322
-0.0288517
-0.0319107
-0.0336024
-0.0339084
-0.032853
-0.0305131
-0.0268862
-0.0218744
-0.0155992
-0.00919127
-0.00541074
-0.00583723
-0.00269989
-0.00340851
-0.00491384
-0.00787804
-0.0124467
-0.0182444
-0.0243834
-0.0299574
-0.0343995
-0.0374882
-0.0392007
-0.0395838
-0.0387133
-0.0366705
-0.033447
-0.0288277
-0.0225385
-0.0150668
-0.00896458
-0.00619224
-0.00489847
-0.00567756
-0.00746041
-0.0108628
-0.0159368
-0.0221772
-0.0285758
-0.0342276
-0.0386537
-0.0417159
-0.0434277
-0.0438421
-0.0430426
-0.0411371
-0.0382057
-0.0341206
-0.02843
-0.0209329
-0.0131739
-0.00766263
-0.00722102
-0.00799593
-0.00993204
-0.0135416
-0.0188142
-0.0251949
-0.0316378
-0.0372702
-0.0416773
-0.0447572
-0.0465147
-0.0469675
-0.0461731
-0.0442597
-0.0414174
-0.0377021
-0.0327642
-0.0259697
-0.0180465
-0.0110628
-0.00934904
-0.0100503
-0.0120003
-0.0155967
-0.0208029
-0.0270944
-0.0334562
-0.0390523
-0.0434829
-0.0466333
-0.0484722
-0.048971
-0.0481468
-0.0461367
-0.0432219
-0.0396561
-0.0353603
-0.0295289
-0.0224257
-0.0151476
-0.0110589
-0.0116215
-0.0134533
-0.0168276
-0.0217364
-0.0277405
-0.0339256
-0.039487
-0.0439824
-0.0472371
-0.0491691
-0.04971
-0.0488345
-0.046689
-0.0436118
-0.0400253
-0.0361888
-0.0312062
-0.0251186
-0.0180443
-0.0122845
-0.0126265
-0.0141679
-0.0171247
-0.0215365
-0.0270799
-0.0329968
-0.0385068
-0.0430864
-0.0464624
-0.0484847
-0.0490527
-0.0481264
-0.0458458
-0.0425833
-0.0388419
-0.0352852
-0.0308239
-0.0255743
-0.0186781
-0.0130419
-0.0131046
-0.0141662
-0.0164681
-0.020174
-0.0251101
-0.0306726
-0.0360985
-0.0407668
-0.0442835
-0.0464142
-0.0470179
-0.0460569
-0.0436514
-0.0402124
-0.0363274
-0.0327422
-0.0284666
-0.0240869
-0.0168061
-0.0133942
-0.0131609
-0.0135695
-0.0149875
-0.0177951
-0.0219881
-0.0271077
-0.0324053
-0.0371611
-0.0408485
-0.0431334
-0.0438219
-0.0428633
-0.040365
-0.0367749
-0.0327027
-0.0289
-0.0246465
-0.0214272
-0.0123564
-0.0134512
-0.0129524
-0.0124865
-0.012812
-0.0145878
-0.017963
-0.0225893
-0.0277292
-0.0325787
-0.0364794
-0.0389892
-0.0398468
-0.0389931
-0.036482
-0.0327776
-0.0284629
-0.0243136
-0.0199142
-0.0174743
-0.00392487
-0.0132909
-0.0126047
-0.0110557
-0.0102022
-0.0109427
-0.0135426
-0.017712
-0.0227091
-0.0276731
-0.0318351
-0.034652
-0.0357702
-0.0350998
-0.0327212
-0.0289389
-0.0242494
-0.0193537
-0.0139952
-0.00927901
0.0135
-0.0138694
-0.012288
-0.00916295
-0.00715088
-0.00706535
-0.0091334
-0.0130289
-0.0179846
-0.0231312
-0.0276218
-0.0308537
-0.0323779
-0.032044
-0.0298076
-0.0258971
-0.0204768
-0.0137609
-0.00430275
0.0110237
0.0520246
-0.0117532
-0.0123755
-0.00770222
-0.00446823
-0.00378638
-0.00563127
-0.00948816
-0.0145349
-0.0199295
-0.0247688
-0.0284484
-0.030441
-0.030567
-0.0285627
-0.0243238
-0.0170675
-0.00568731
0.0148763
0.0533534
0.123393
-0.0294541
-0.0118696
-0.00345965
-0.000430557
-0.000372802
-0.00257487
-0.00666546
-0.0119393
-0.0175821
-0.0226904
-0.0266534
-0.0289385
-0.0293257
-0.0273745
-0.0224517
-0.0124826
0.0067346
0.0456172
0.116062
0.219947
)
;

boundaryField
{
    movingWall
    {
        type            zeroGradient;
    }
    fixedWalls
    {
        type            zeroGradient;
    }
    frontAndBack
    {
        type            empty;
    }
}


// ************************************************************************* //
