/*--------------------------------*- C++ -*----------------------------------*\
| =========                 |                                                 |
| \\      /  F ield         | OpenFOAM: The Open Source CFD Toolbox           |
|  \\    /   O peration     | Version:  2212                                  |
|   \\  /    A nd           | Website:  www.openfoam.com                      |
|    \\/     M anipulation  |                                                 |
\*---------------------------------------------------------------------------*/
FoamFile
{
    version     2.0;
    format      ascii;
    arch        "LSB;label=32;scalar=64";
    class       volScalarField;
    location    "1.09";
    object      p;
}
// * * * * * * * * * * * * * * * * * * * * * * * * * * * * * * * * * * * * * //

dimensions      [0 2 -2 0 0 0 0];

internalField   nonuniform List<scalar> 
400
(
3.41027e-06
-0.0058242
-0.0129622
-0.0184147
-0.0204324
-0.0182387
-0.0117742
-0.00148397
0.0118371
0.027149
0.0432444
0.0588231
0.0725789
0.0833089
0.0900533
0.0922674
0.0900262
0.0842441
0.0768808
0.0710672
0.00578188
-0.000217389
-0.00580342
-0.00954228
-0.0105989
-0.00843281
-0.00297011
0.00547395
0.0163027
0.0287116
0.0417497
0.054386
0.0655866
0.0744102
0.0801206
0.0823161
0.0810776
0.0770551
0.0712742
0.0653179
0.0133361
0.00503442
-0.00099477
-0.00442278
-0.0052728
-0.00326398
0.00160218
0.00902738
0.0185019
0.0293492
0.0407654
0.0518697
0.0617686
0.0696365
0.0748072
0.0768783
0.0758418
0.0720861
0.0658056
0.0575354
0.0201403
0.00869665
0.00122639
-0.00266816
-0.00372193
-0.00188531
0.00273112
0.00978434
0.0187802
0.0290949
0.0399919
0.050654
0.060233
0.067916
0.0730033
0.0750016
0.0737659
0.0694562
0.061603
0.0501024
0.0245029
0.00977378
0.000590298
-0.00398651
-0.00530196
-0.00350723
0.00117466
0.00833435
0.0174617
0.0279488
0.0390849
0.0500699
0.0600489
0.0681651
0.0736263
0.0757977
0.0743689
0.0692897
0.0595254
0.0445369
0.0251787
0.00715068
-0.00380152
-0.00905679
-0.0105118
-0.00849976
-0.00335675
0.00442931
0.0143131
0.0256788
0.0378136
0.0499032
0.061048
0.0703031
0.0767346
0.0795168
0.0781388
0.0723334
0.0605391
0.0418898
0.0210943
-0.000261759
-0.012934
-0.0187089
-0.0200295
-0.0174136
-0.0113182
-0.00231965
0.00899032
0.021976
0.0359094
0.0499442
0.0631121
0.0743452
0.0825218
0.0865694
0.0857206
0.0794469
0.0656202
0.0430714
0.0111435
-0.0136177
-0.0278746
-0.0338539
-0.0346032
-0.0308572
-0.0232126
-0.012345
0.00110489
0.0164838
0.0330524
0.0499334
0.0660832
0.0802898
0.0912007
0.09743
0.0978702
0.0916359
0.0758961
0.0491163
-0.00596664
-0.034266
-0.0498696
-0.0555483
-0.0550899
-0.0495143
-0.0395932
-0.0261131
-0.00975693
0.00882306
0.0289009
0.0495934
0.0697974
0.0881545
0.103047
0.112701
0.115551
0.110192
0.0928342
0.0614113
-0.0318568
-0.0638757
-0.0804165
-0.0850068
-0.0824198
-0.0740781
-0.0609807
-0.0440364
-0.0239513
-0.00133671
0.0231457
0.048661
0.0740956
0.0979722
0.118396
0.133126
0.139989
0.136818
0.118441
0.0819338
-0.0686671
-0.104603
-0.121344
-0.12359
-0.117515
-0.105126
-0.087718
-0.0663253
-0.0416368
-0.0141553
0.0156058
0.0469534
0.0788559
0.109794
0.137624
0.159586
0.172727
0.173778
0.155521
0.113571
-0.119402
-0.159357
-0.174914
-0.172757
-0.161147
-0.142928
-0.119759
-0.0927767
-0.0625771
-0.0294473
0.00637347
0.0444738
0.0840554
0.123703
0.161136
0.193086
0.215668
0.224077
0.208051
0.160633
-0.188628
-0.232242
-0.243938
-0.233947
-0.213694
-0.187154
-0.156372
-0.122501
-0.0858974
-0.0464717
-0.00401394
0.0415394
0.0898427
0.13983
0.189319
0.23469
0.271075
0.291665
0.281743
0.229776
-0.283974
-0.329304
-0.331831
-0.308279
-0.274708
-0.236439
-0.195763
-0.153609
-0.109839
-0.0637443
-0.0144371
0.0388643
0.0965552
0.158277
0.222375
0.285289
0.341398
0.381576
0.384915
0.331835
-0.419317
-0.45967
-0.442349
-0.395791
-0.342128
-0.287738
-0.234614
-0.182928
-0.131608
-0.0789836
-0.0232127
0.0374766
0.104555
0.178839
0.259863
0.344972
0.428618
0.499701
0.529676
0.485393
-0.62053
-0.636742
-0.578675
-0.494191
-0.411239
-0.335656
-0.267778
-0.205976
-0.147534
-0.089381
-0.0284241
0.0383502
0.113809
0.200473
0.299977
0.412027
0.533031
0.651777
0.732773
0.722397
-0.935922
-0.878513
-0.741739
-0.597946
-0.47439
-0.372657
-0.288866
-0.21776
-0.153951
-0.0924615
-0.028715
0.041698
0.123266
0.22072
0.338928
0.482157
0.651999
0.841344
1.01527
1.09751
-1.47642
-1.20663
-0.9205
-0.691385
-0.517302
-0.387541
-0.290058
-0.213335
-0.148121
-0.0872129
-0.0245751
0.04546
0.12894
0.233073
0.367106
0.542681
0.771295
1.05932
1.40329
1.73014
-2.53965
-1.63055
-1.04444
-0.710956
-0.495748
-0.35209
-0.254528
-0.18358
-0.126167
-0.0735926
-0.0192665
0.0427894
0.119215
0.218785
0.354815
0.547986
0.826395
1.23658
1.91168
2.9242
-4.36666
-2.04463
-0.973539
-0.563178
-0.357843
-0.240144
-0.170116
-0.12378
-0.0874786
-0.0535077
-0.016652
0.027663
0.0846098
0.161732
0.272414
0.442101
0.718221
1.22571
2.41104
4.84853
)
;

boundaryField
{
    movingWall
    {
        type            zeroGradient;
    }
    fixedWalls
    {
        type            zeroGradient;
    }
    frontAndBack
    {
        type            empty;
    }
}


// ************************************************************************* //
