/*--------------------------------*- C++ -*----------------------------------*\
| =========                 |                                                 |
| \\      /  F ield         | OpenFOAM: The Open Source CFD Toolbox           |
|  \\    /   O peration     | Version:  2212                                  |
|   \\  /    A nd           | Website:  www.openfoam.com                      |
|    \\/     M anipulation  |                                                 |
\*---------------------------------------------------------------------------*/
FoamFile
{
    version     2.0;
    format      ascii;
    arch        "LSB;label=32;scalar=64";
    class       volScalarField;
    location    "0.125";
    object      p;
}
// * * * * * * * * * * * * * * * * * * * * * * * * * * * * * * * * * * * * * //

dimensions      [0 2 -2 0 0 0 0];

internalField   nonuniform List<scalar> 
400
(
8.98505e-10
-1.20568e-05
2.29722e-05
9.99239e-05
0.000216407
0.00037101
0.000561611
0.00078516
0.00103755
0.00131347
0.00160637
0.00190792
0.00220912
0.00249947
0.00276776
0.00300251
0.00319278
0.00332888
0.00340164
0.00340281
1.10076e-05
-2.20346e-06
3.24648e-05
0.00010783
0.000221751
0.000373351
0.00056082
0.000781355
0.00103106
0.00130477
0.00159592
0.0018972
0.00219875
0.00249015
0.00276008
0.00299684
0.00318923
0.0033275
0.00340217
0.0034027
-2.84262e-05
-4.42866e-05
-1.04811e-05
6.44186e-05
0.000178221
0.000330374
0.000519376
0.000742724
0.000996791
0.00127665
0.00157593
0.00188708
0.00220027
0.0025046
0.00278808
0.00303807
0.00324224
0.0033897
0.00346954
0.00346905
-0.000114695
-0.000133319
-0.000100275
-2.49753e-05
9.0423e-05
0.000245725
0.000439827
0.000670624
0.00093485
0.00122783
0.00154325
0.0018739
0.00220922
0.00253769
0.00284617
0.00312045
0.00334619
0.00351038
0.00359986
0.00359983
-0.000247727
-0.000269492
-0.000237117
-0.000160792
-4.25239e-05
0.000117984
0.000320167
0.000562466
0.000842129
0.00115487
0.00149445
0.00185399
0.00222217
0.0025867
0.00293281
0.00324393
0.00350272
0.0036928
0.00379762
0.00379957
-0.000429797
-0.000455541
-0.000424029
-0.000346399
-0.000224434
-5.717e-05
0.000155556
0.000412928
0.000712925
0.001052
0.00142493
0.00182204
0.00223458
0.00264857
0.0030471
0.00341035
0.0037167
0.00394468
0.00407243
0.00407811
-0.000663953
-0.000694852
-0.000664771
-0.000586071
-0.000460218
-0.000285363
-6.03852e-05
0.000214878
0.000539347
0.000910293
0.00132286
0.00176924
0.00223914
0.00271794
0.00318651
0.00362104
0.00399393
0.0042762
0.00443767
0.00444977
-0.000953953
-0.000991535
-0.000963938
-0.00088508
-0.000755991
-0.000573663
-0.000335726
-4.07435e-05
0.00031147
0.000719393
0.00117932
0.0016846
0.00222523
0.00278602
0.0033457
0.00387576
0.00434073
0.00470058
0.00491189
0.00493505
-0.00130427
-0.00135051
-0.00132706
-0.00124982
-0.00111922
-0.000930751
-0.000680433
-0.000365217
1.66945e-05
0.000465424
0.000978944
0.00155242
0.00217723
0.00283874
0.00351436
0.00417087
0.00476287
0.00523437
0.00552073
0.00556354
-0.0017201
-0.00177754
-0.00176066
-0.00168788
-0.00155885
-0.00136706
-0.00110653
-0.000772229
-0.000360415
0.00013106
0.000702453
0.00135149
0.00207277
0.00285409
0.00367386
0.00449556
0.00526267
0.00589689
0.00629941
0.00637886
-0.00220747
-0.00227936
-0.00227236
-0.00220821
-0.00208543
-0.00189494
-0.00162822
-0.00127792
-0.000838164
-0.000304559
0.000325845
0.00105433
0.00188078
0.00279868
0.00379194
0.00482537
0.00583293
0.00670727
0.00729542
0.00744795
-0.00277355
-0.00286397
-0.00287115
-0.00282131
-0.00271141
-0.00252886
-0.00226194
-0.00190075
-0.00143732
-0.000865243
-0.000178877
0.000627097
0.00156011
0.00262372
0.00381507
0.00511062
0.00644373
0.00767485
0.00856833
0.00887749
-0.00342743
-0.00354129
-0.00356786
-0.0035397
-0.00345148
-0.00328568
-0.00302644
-0.0026611
-0.00218022
-0.00157632
-0.00084203
3.24061e-05
0.00105981
0.00226166
0.00365833
0.00525715
0.00701522
0.00877245
0.0101809
0.0108471
-0.00418203
-0.00432455
-0.00437596
-0.00437842
-0.00432319
-0.00418521
-0.00394289
-0.00358075
-0.00308912
-0.00246189
-0.0016928
-0.000771042
0.00032264
0.00162637
0.0031951
0.00509609
0.00736256
0.0098764
0.012195
0.0137137
-0.00505873
-0.00523373
-0.0053132
-0.0053559
-0.00534792
-0.00525125
-0.0050355
-0.00468236
-0.00418423
-0.00354025
-0.00275078
-0.00181075
-0.000701667
0.000624262
0.00225508
0.00434622
0.00709324
0.0106062
0.0145088
0.0179924
-0.00609773
-0.00629449
-0.00639706
-0.00649268
-0.0065521
-0.00651357
-0.00633303
-0.0059896
-0.00548165
-0.00481943
-0.00401774
-0.00308797
-0.00202926
-0.000811661
0.000656548
0.00261407
0.00545458
0.00982803
0.0157146
0.0226414
-0.00735043
-0.00762164
-0.00769945
-0.00782672
-0.00797134
-0.0080109
-0.00787103
-0.0075275
-0.00699129
-0.00629143
-0.00546685
-0.00455813
-0.00361159
-0.00265966
-0.00168558
-0.000450733
0.00128695
0.0051024
0.011888
0.0243644
-0.00933958
-0.00903783
-0.00890795
-0.0092444
-0.00960232
-0.00977902
-0.00968441
-0.0093094
-0.00869837
-0.00790949
-0.00701629
-0.00609033
-0.0052588
-0.00467687
-0.00462168
-0.00532319
-0.00563979
-0.00361235
0.00431453
0.0291842
-0.00951541
-0.0119464
-0.0116523
-0.011615
-0.0118541
-0.0119769
-0.0117623
-0.0112128
-0.0104155
-0.0094451
-0.00841596
-0.00739349
-0.00661819
-0.00632204
-0.0069793
-0.00887065
-0.0113309
-0.00590349
0.0141131
0.0674768
-0.0256434
-0.0124122
-0.00921308
-0.00979746
-0.0107941
-0.0113136
-0.0113383
-0.0109817
-0.010359
-0.00950377
-0.00859515
-0.00764664
-0.00713868
-0.00712693
-0.00830029
-0.00926947
-0.00635176
0.0115238
0.0612252
0.145437
)
;

boundaryField
{
    movingWall
    {
        type            zeroGradient;
    }
    fixedWalls
    {
        type            zeroGradient;
    }
    frontAndBack
    {
        type            empty;
    }
}


// ************************************************************************* //
