/*--------------------------------*- C++ -*----------------------------------*\
| =========                 |                                                 |
| \\      /  F ield         | OpenFOAM: The Open Source CFD Toolbox           |
|  \\    /   O peration     | Version:  2212                                  |
|   \\  /    A nd           | Website:  www.openfoam.com                      |
|    \\/     M anipulation  |                                                 |
\*---------------------------------------------------------------------------*/
FoamFile
{
    version     2.0;
    format      ascii;
    arch        "LSB;label=32;scalar=64";
    class       volVectorField;
    location    "2.135";
    object      U;
}
// * * * * * * * * * * * * * * * * * * * * * * * * * * * * * * * * * * * * * //

dimensions      [0 1 -1 0 0 0 0];

internalField   nonuniform List<vector> 
400
(
(0.00119664 -0.00126023 0)
(0.00327519 -0.00134316 0)
(0.00417696 -0.000898712 0)
(0.0030946 -0.000380799 0)
(-0.000583199 0.000327794 0)
(-0.00779481 0.00163948 0)
(-0.0194276 0.00395835 0)
(-0.0354197 0.00699846 0)
(-0.0537387 0.0092754 0)
(-0.0702413 0.00908904 0)
(-0.0806091 0.00620642 0)
(-0.0821769 0.00177862 0)
(-0.0738656 -0.00296173 0)
(-0.0561352 -0.00726248 0)
(-0.0324079 -0.009696 0)
(-0.00678128 -0.00885181 0)
(0.0134142 -0.00456578 0)
(0.0209296 0.00220743 0)
(0.0142301 0.00561707 0)
(0.00390907 0.00416727 0)
(0.000913773 -0.003299 0)
(0.000931794 -0.00216777 0)
(-0.00312249 0.00125701 0)
(-0.0127107 0.00584557 0)
(-0.0295567 0.0119754 0)
(-0.0543652 0.019832 0)
(-0.0850096 0.0277547 0)
(-0.116185 0.0321392 0)
(-0.142211 0.0302553 0)
(-0.159362 0.0221582 0)
(-0.165793 0.00966422 0)
(-0.161121 -0.00497997 0)
(-0.145858 -0.0199231 0)
(-0.120537 -0.0328495 0)
(-0.0873763 -0.0402443 0)
(-0.0490997 -0.0381585 0)
(-0.01141 -0.0245238 0)
(0.0144802 -0.00211283 0)
(0.015915 0.0140754 0)
(0.00511122 0.0132176 0)
(-0.000862672 -0.00274868 0)
(-0.00630105 0.00318833 0)
(-0.0190194 0.0133421 0)
(-0.04001 0.0265284 0)
(-0.0700703 0.0415887 0)
(-0.106431 0.0551041 0)
(-0.143167 0.062344 0)
(-0.174798 0.0603867 0)
(-0.198447 0.0494672 0)
(-0.212986 0.0315177 0)
(-0.218063 0.00877057 0)
(-0.214045 -0.0166651 0)
(-0.201222 -0.0426389 0)
(-0.179213 -0.0657089 0)
(-0.147818 -0.0810039 0)
(-0.1072 -0.0819301 0)
(-0.0594927 -0.0622395 0)
(-0.0128435 -0.0223075 0)
(0.00874469 0.0151834 0)
(0.00407549 0.0212728 0)
(-0.00320146 0.0034447 0)
(-0.0155594 0.0176736 0)
(-0.0378671 0.0361632 0)
(-0.0684731 0.0577911 0)
(-0.106046 0.0783274 0)
(-0.14539 0.0918232 0)
(-0.180514 0.0939909 0)
(-0.208338 0.0844638 0)
(-0.228346 0.0655288 0)
(-0.240707 0.0397054 0)
(-0.24593 0.00898448 0)
(-0.244717 -0.0251301 0)
(-0.23712 -0.0604971 0)
(-0.22217 -0.0940948 0)
(-0.198058 -0.120741 0)
(-0.162294 -0.132085 0)
(-0.112909 -0.116853 0)
(-0.0522953 -0.0665553 0)
(-0.000953265 0.00165279 0)
(0.00459942 0.0257044 0)
(-0.00562865 0.015832 0)
(-0.0242069 0.0404252 0)
(-0.0535569 0.0664505 0)
(-0.0891469 0.0936598 0)
(-0.127984 0.115424 0)
(-0.164237 0.125348 0)
(-0.193579 0.121101 0)
(-0.215112 0.104584 0)
(-0.229537 0.0791477 0)
(-0.238096 0.0475737 0)
(-0.242317 0.0116378 0)
(-0.243233 -0.0276748 0)
(-0.24086 -0.0690811 0)
(-0.234464 -0.110991 0)
(-0.221553 -0.149584 0)
(-0.197681 -0.176738 0)
(-0.157336 -0.177966 0)
(-0.0964901 -0.133827 0)
(-0.0202546 -0.037086 0)
(0.00683178 0.024836 0)
(-0.00700764 0.0324089 0)
(-0.0292275 0.0680365 0)
(-0.0616007 0.0995156 0)
(-0.0972271 0.129072 0)
(-0.132483 0.148966 0)
(-0.162119 0.153566 0)
(-0.183665 0.142638 0)
(-0.197604 0.1198 0)
(-0.205431 0.089172 0)
(-0.209282 0.0538927 0)
(-0.21127 0.0157758 0)
(-0.212626 -0.0245288 0)
(-0.213695 -0.0671437 0)
(-0.214439 -0.112327 0)
(-0.212842 -0.15885 0)
(-0.203871 -0.201332 0)
(-0.179711 -0.225919 0)
(-0.132225 -0.206401 0)
(-0.0577099 -0.111052 0)
(0.0052805 0.0130279 0)
(-0.00679177 0.0506263 0)
(-0.0293235 0.0967164 0)
(-0.0607283 0.131305 0)
(-0.0926967 0.160529 0)
(-0.121768 0.176651 0)
(-0.143767 0.1752 0)
(-0.157785 0.157788 0)
(-0.165154 0.129361 0)
(-0.167898 0.0947155 0)
(-0.168452 0.0572541 0)
(-0.168708 0.0186951 0)
(-0.169617 -0.0206097 0)
(-0.171786 -0.0615245 0)
(-0.175849 -0.105436 0)
(-0.181135 -0.153494 0)
(-0.183916 -0.204568 0)
(-0.176209 -0.249561 0)
(-0.148125 -0.262506 0)
(-0.0935707 -0.194943 0)
(-0.00779076 -0.014137 0)
(-0.00504505 0.0676026 0)
(-0.0247978 0.123255 0)
(-0.052178 0.159236 0)
(-0.0784205 0.186442 0)
(-0.100594 0.197958 0)
(-0.115725 0.190494 0)
(-0.124017 0.167227 0)
(-0.127246 0.13418 0)
(-0.127644 0.096647 0)
(-0.1274 0.0579843 0)
(-0.127632 0.0195057 0)
(-0.128633 -0.0188261 0)
(-0.130839 -0.057877 0)
(-0.135148 -0.0989982 0)
(-0.142223 -0.144376 0)
(-0.150683 -0.196625 0)
(-0.154248 -0.253622 0)
(-0.142429 -0.29535 0)
(-0.107994 -0.26489 0)
(-0.0286358 -0.0701074 0)
(-0.00227385 0.0807683 0)
(-0.0170256 0.145112 0)
(-0.0384713 0.181569 0)
(-0.0581594 0.205948 0)
(-0.0737695 0.212942 0)
(-0.0834267 0.200371 0)
(-0.0879882 0.172567 0)
(-0.0892968 0.1363 0)
(-0.0894061 0.0971227 0)
(-0.0898873 0.0581207 0)
(-0.0910634 0.0200248 0)
(-0.0927462 -0.0176702 0)
(-0.0950587 -0.0556561 0)
(-0.0986834 -0.0946211 0)
(-0.104956 -0.136426 0)
(-0.114731 -0.185602 0)
(-0.124543 -0.24683 0)
(-0.123682 -0.310448 0)
(-0.104573 -0.321195 0)
(-0.0359522 -0.153223 0)
(0.000917889 0.0882617 0)
(-0.00747117 0.160692 0)
(-0.021896 0.197701 0)
(-0.0348849 0.219517 0)
(-0.0445709 0.222919 0)
(-0.050004 0.206639 0)
(-0.0522609 0.175795 0)
(-0.0528919 0.137659 0)
(-0.0534768 0.0978834 0)
(-0.0549442 0.0591485 0)
(-0.0571573 0.0215689 0)
(-0.0597609 -0.0157363 0)
(-0.0626816 -0.0533181 0)
(-0.0662087 -0.0912275 0)
(-0.0715111 -0.130247 0)
(-0.0805009 -0.174812 0)
(-0.093154 -0.234241 0)
(-0.0991883 -0.311023 0)
(-0.0935764 -0.358815 0)
(-0.0304894 -0.231188 0)
(0.00399234 0.0891769 0)
(0.00239465 0.168947 0)
(-0.00466286 0.207206 0)
(-0.0111181 0.227032 0)
(-0.0154483 0.227889 0)
(-0.0173048 0.209473 0)
(-0.0177691 0.177294 0)
(-0.017932 0.138725 0)
(-0.0187888 0.0992491 0)
(-0.0207847 0.0611713 0)
(-0.0236206 0.0242536 0)
(-0.0270048 -0.0125397 0)
(-0.0309166 -0.0497749 0)
(-0.0353488 -0.087224 0)
(-0.040967 -0.124669 0)
(-0.0494203 -0.165213 0)
(-0.0636986 -0.220184 0)
(-0.0738344 -0.303899 0)
(-0.0804792 -0.382844 0)
(-0.0228633 -0.294862 0)
(0.00645386 0.0839325 0)
(0.0115647 0.169716 0)
(0.0117952 0.210321 0)
(0.0116494 0.22939 0)
(0.0124787 0.229118 0)
(0.014159 0.210097 0)
(0.0156767 0.17794 0)
(0.0163666 0.139873 0)
(0.015776 0.101131 0)
(0.0138212 0.0638419 0)
(0.0108199 0.0277495 0)
(0.00688259 -0.00817215 0)
(0.00187652 -0.0445936 0)
(-0.00408536 -0.0812376 0)
(-0.0113482 -0.117526 0)
(-0.0204471 -0.154866 0)
(-0.0368239 -0.204201 0)
(-0.0495731 -0.289792 0)
(-0.0680937 -0.394941 0)
(-0.0147322 -0.347717 0)
(0.00765248 0.0736906 0)
(0.0187472 0.163163 0)
(0.02585 0.206588 0)
(0.0316051 0.225625 0)
(0.0374595 0.225202 0)
(0.0431113 0.20693 0)
(0.0474778 0.176167 0)
(0.0500097 0.139656 0)
(0.0505559 0.102334 0)
(0.0492731 0.0662925 0)
(0.0465185 0.0314485 0)
(0.0421487 -0.00318641 0)
(0.03615 -0.0380623 0)
(0.0284732 -0.0732057 0)
(0.0185338 -0.108004 0)
(0.00725051 -0.142761 0)
(-0.0123628 -0.18702 0)
(-0.0262575 -0.27109 0)
(-0.0567772 -0.397571 0)
(-0.00663296 -0.389985 0)
(0.00714527 0.0604013 0)
(0.0227512 0.149957 0)
(0.0363824 0.196676 0)
(0.0480892 0.216927 0)
(0.0592322 0.217497 0)
(0.0695002 0.201124 0)
(0.0776982 0.172808 0)
(0.0831518 0.138635 0)
(0.0857578 0.103223 0)
(0.0857576 0.0687699 0)
(0.0834802 0.0355452 0)
(0.078964 0.00281976 0)
(0.0719883 -0.0297561 0)
(0.0624648 -0.0625959 0)
(0.0495445 -0.0951798 0)
(0.0348045 -0.127285 0)
(0.0106017 -0.166648 0)
(-0.00317399 -0.247776 0)
(-0.0464827 -0.393935 0)
(0.00199621 -0.425447 0)
(0.00494941 0.0469136 0)
(0.0223411 0.132208 0)
(0.0410007 0.180208 0)
(0.0582137 0.200889 0)
(0.0749708 0.202463 0)
(0.0907918 0.188631 0)
(0.104152 0.163867 0)
(0.114003 0.133337 0)
(0.120026 0.10115 0)
(0.122386 0.0694942 0)
(0.12133 0.039001 0)
(0.117071 0.00928561 0)
(0.108996 -0.0200543 0)
(0.09767 -0.049451 0)
(0.0812876 -0.0786804 0)
(0.0625969 -0.108182 0)
(0.0333154 -0.143648 0)
(0.0197204 -0.221932 0)
(-0.0367861 -0.387144 0)
(0.0123064 -0.455371 0)
(0.00157603 0.0358022 0)
(0.0172933 0.112494 0)
(0.039741 0.160373 0)
(0.0624434 0.181417 0)
(0.0853028 0.183905 0)
(0.107341 0.172597 0)
(0.126759 0.151738 0)
(0.142041 0.125545 0)
(0.152492 0.0974776 0)
(0.15816 0.0695551 0)
(0.158949 0.0426379 0)
(0.15556 0.0166745 0)
(0.146656 -0.00864026 0)
(0.133698 -0.0335691 0)
(0.113636 -0.0583229 0)
(0.0911008 -0.0843513 0)
(0.0567219 -0.117052 0)
(0.0419354 -0.194015 0)
(-0.0259102 -0.378002 0)
(0.026815 -0.478865 0)
(-0.00303324 0.0325673 0)
(0.00525232 0.0955868 0)
(0.0264816 0.133508 0)
(0.0541287 0.151211 0)
(0.083944 0.15389 0)
(0.11352 0.145443 0)
(0.140337 0.129359 0)
(0.162487 0.108812 0)
(0.17873 0.0865534 0)
(0.189074 0.0642371 0)
(0.192822 0.0428363 0)
(0.191252 0.0224129 0)
(0.182328 0.00291112 0)
(0.168881 -0.0161697 0)
(0.145951 -0.0350573 0)
(0.121114 -0.0568164 0)
(0.0822978 -0.0886858 0)
(0.0639246 -0.168407 0)
(-0.00802426 -0.363837 0)
(0.0503209 -0.487581 0)
(-0.0110176 0.0227044 0)
(-0.00813963 0.0875067 0)
(0.0112656 0.116 0)
(0.0426389 0.125057 0)
(0.0786138 0.124152 0)
(0.114922 0.116847 0)
(0.148439 0.105003 0)
(0.176657 0.0900574 0)
(0.198094 0.0740639 0)
(0.213136 0.0579133 0)
(0.220093 0.0427827 0)
(0.221865 0.0284897 0)
(0.21448 0.0156429 0)
(0.204073 0.00301927 0)
(0.182001 -0.00947788 0)
(0.161089 -0.0271938 0)
(0.120704 -0.0588999 0)
(0.100317 -0.139603 0)
(0.0336972 -0.32436 0)
(0.0909255 -0.454523 0)
(-0.104156 0.085384 0)
(-0.0770323 0.0703866 0)
(-0.0513883 0.0695049 0)
(-0.00423758 0.0712067 0)
(0.043672 0.0706564 0)
(0.0914492 0.0670457 0)
(0.134951 0.0611548 0)
(0.174681 0.0533646 0)
(0.205719 0.0452671 0)
(0.233378 0.0369051 0)
(0.249916 0.0294466 0)
(0.265921 0.0223524 0)
(0.26838 0.0165442 0)
(0.274254 0.0107983 0)
(0.261539 0.00475718 0)
(0.256905 -0.0062034 0)
(0.220952 -0.0316873 0)
(0.211671 -0.0930674 0)
(0.148 -0.229295 0)
(0.170176 -0.341314 0)
(0.131201 0.104956 0)
(0.16102 0.077846 0)
(0.216083 0.0558737 0)
(0.27376 0.0434785 0)
(0.323961 0.0369014 0)
(0.373032 0.0323361 0)
(0.414465 0.0290496 0)
(0.457002 0.0256526 0)
(0.488386 0.0230754 0)
(0.522555 0.0199807 0)
(0.541896 0.0179851 0)
(0.567997 0.0151376 0)
(0.575184 0.0138641 0)
(0.594718 0.0111167 0)
(0.588051 0.0102939 0)
(0.598379 0.00582366 0)
(0.564827 0.000922712 0)
(0.547017 -0.0176166 0)
(0.436855 -0.0500499 0)
(0.337544 -0.101259 0)
)
;

boundaryField
{
    movingWall
    {
        type            fixedValue;
        value           uniform (1 0 0);
    }
    fixedWalls
    {
        type            noSlip;
    }
    frontAndBack
    {
        type            empty;
    }
}


// ************************************************************************* //
