/*--------------------------------*- C++ -*----------------------------------*\
| =========                 |                                                 |
| \\      /  F ield         | OpenFOAM: The Open Source CFD Toolbox           |
|  \\    /   O peration     | Version:  2212                                  |
|   \\  /    A nd           | Website:  www.openfoam.com                      |
|    \\/     M anipulation  |                                                 |
\*---------------------------------------------------------------------------*/
FoamFile
{
    version     2.0;
    format      ascii;
    arch        "LSB;label=32;scalar=64";
    class       surfaceScalarField;
    location    "1.87";
    object      phi;
}
// * * * * * * * * * * * * * * * * * * * * * * * * * * * * * * * * * * * * * //

dimensions      [0 3 -1 0 0 0 0];

oriented        oriented;

internalField   nonuniform List<scalar> 
760
(
8.50564e-08
-8.50587e-08
1.39864e-07
-5.48076e-08
1.20101e-07
1.97636e-08
5.21788e-09
1.14883e-07
-2.37353e-07
2.42571e-07
-6.54417e-07
4.17065e-07
-1.27264e-06
6.18228e-07
-2.05021e-06
7.77566e-07
-2.85433e-06
8.04116e-07
-3.50113e-06
6.46804e-07
-3.82882e-06
3.27689e-07
-3.7442e-06
-8.46251e-08
-3.1631e-06
-5.81096e-07
-2.17387e-06
-9.89226e-07
-9.69179e-07
-1.2047e-06
1.32244e-07
-1.10142e-06
8.10211e-07
-6.77968e-07
8.23624e-07
-1.34133e-08
3.79568e-07
4.44056e-07
3.79568e-07
1.70168e-08
-1.02075e-07
-1.06727e-07
6.89365e-08
-4.32979e-07
3.46016e-07
-1.03288e-06
7.14788e-07
-1.96184e-06
1.17152e-06
-3.2001e-06
1.65532e-06
-4.60664e-06
2.02477e-06
-5.94932e-06
2.12025e-06
-7.00656e-06
1.86136e-06
-7.63557e-06
1.27581e-06
-7.7684e-06
4.6052e-07
-7.35989e-06
-4.93141e-07
-6.43567e-06
-1.50531e-06
-5.02296e-06
-2.40193e-06
-3.25207e-06
-2.97559e-06
-1.39685e-06
-2.95664e-06
6.53479e-08
-2.14017e-06
6.99395e-07
-6.47461e-07
4.45407e-07
6.98044e-07
8.24975e-07
-1.7362e-07
7.15451e-08
-6.26783e-07
5.221e-07
-1.39782e-06
1.11705e-06
-2.54464e-06
1.86161e-06
-4.04066e-06
2.66755e-06
-5.71902e-06
3.33369e-06
-7.33131e-06
3.63706e-06
-8.67354e-06
3.46248e-06
-9.6435e-06
2.83131e-06
-1.02029e-05
1.83518e-06
-1.03114e-05
5.69031e-07
-9.96495e-06
-8.3957e-07
-9.16971e-06
-2.30055e-06
-7.8814e-06
-3.69024e-06
-6.0853e-06
-4.77169e-06
-3.88586e-06
-5.15608e-06
-1.64608e-06
-4.37995e-06
-7.56733e-08
-2.21786e-06
2.72452e-07
3.49919e-07
1.09743e-06
-4.1674e-07
4.88285e-07
-1.25227e-06
1.35763e-06
-2.4462e-06
2.31098e-06
-3.99044e-06
3.40585e-06
-5.75556e-06
4.43267e-06
-7.51198e-06
5.0901e-06
-9.04666e-06
5.17173e-06
-1.02497e-05
4.66555e-06
-1.11041e-05
3.68567e-06
-1.16226e-05
2.35369e-06
-1.17903e-05
7.36753e-07
-1.16262e-05
-1.00373e-06
-1.1124e-05
-2.80271e-06
-1.01903e-05
-4.62391e-06
-8.71114e-06
-6.25088e-06
-6.58084e-06
-7.28638e-06
-3.87625e-06
-7.08454e-06
-1.19636e-06
-4.89776e-06
1.16904e-07
-9.63343e-07
1.21433e-06
-6.50747e-07
1.13903e-06
-1.79844e-06
2.50532e-06
-3.26736e-06
3.7799e-06
-4.97343e-06
5.11192e-06
-6.73065e-06
6.18989e-06
-8.32211e-06
6.68156e-06
-9.61053e-06
6.46016e-06
-1.05633e-05
5.61832e-06
-1.12078e-05
4.33018e-06
-1.15942e-05
2.74003e-06
-1.17818e-05
9.24435e-07
-1.17879e-05
-9.97677e-07
-1.16039e-05
-2.98666e-06
-1.11511e-05
-5.0767e-06
-1.02597e-05
-7.14234e-06
-8.67013e-06
-8.87593e-06
-6.14322e-06
-9.61146e-06
-2.83643e-06
-8.20454e-06
-2.21521e-07
-3.57826e-06
9.92809e-07
-7.96769e-07
1.9358e-06
-2.10794e-06
3.81649e-06
-3.65185e-06
5.32382e-06
-5.29047e-06
6.75054e-06
-6.83394e-06
7.73336e-06
-8.11645e-06
7.96408e-06
-9.06533e-06
7.40903e-06
-9.69629e-06
6.24929e-06
-1.00705e-05
4.70436e-06
-1.02699e-05
2.93945e-06
-1.03971e-05
1.05161e-06
-1.049e-05
-9.04713e-07
-1.05382e-05
-2.93852e-06
-1.05195e-05
-5.09537e-06
-1.02865e-05
-7.3753e-06
-9.52293e-06
-9.63955e-06
-7.77555e-06
-1.13588e-05
-4.71517e-06
-1.12649e-05
-1.00888e-06
-7.28455e-06
-1.60684e-08
-8.11565e-07
2.74737e-06
-2.11181e-06
5.11674e-06
-3.55e-06
6.76201e-06
-4.96488e-06
8.16542e-06
-6.19845e-06
8.96693e-06
-7.13886e-06
8.90448e-06
-7.76143e-06
8.03161e-06
-8.11246e-06
6.60032e-06
-8.27419e-06
4.86608e-06
-8.33821e-06
3.00348e-06
-8.39055e-06
1.10395e-06
-8.47897e-06
-8.16295e-07
-8.6161e-06
-2.8014e-06
-8.82221e-06
-4.88925e-06
-9.0403e-06
-7.15721e-06
-9.02607e-06
-9.65378e-06
-8.26368e-06
-1.21212e-05
-6.06182e-06
-1.34668e-05
-2.161e-06
-1.11854e-05
-2.17707e-06
-6.93368e-07
3.44073e-06
-1.83148e-06
6.25485e-06
-3.04295e-06
7.97348e-06
-4.16353e-06
9.286e-06
-5.07856e-06
9.88195e-06
-5.72493e-06
9.55085e-06
-6.11079e-06
8.41747e-06
-6.29777e-06
6.78731e-06
-6.37012e-06
4.93843e-06
-6.40577e-06
3.03913e-06
-6.45106e-06
1.14925e-06
-6.52599e-06
-7.4137e-07
-6.65688e-06
-2.6705e-06
-6.88933e-06
-4.65681e-06
-7.25134e-06
-6.7952e-06
-7.64499e-06
-9.26013e-06
-7.63005e-06
-1.21362e-05
-6.39099e-06
-1.47058e-05
-3.26866e-06
-1.43077e-05
-5.44573e-06
-4.72859e-07
3.91359e-06
-1.34692e-06
7.12891e-06
-2.27003e-06
8.89659e-06
-3.08346e-06
1.00994e-05
-3.71364e-06
1.05121e-05
-4.13705e-06
9.97426e-06
-4.38069e-06
8.66111e-06
-4.5058e-06
6.91241e-06
-4.58217e-06
5.0148e-06
-4.6582e-06
3.11515e-06
-4.74566e-06
1.2367e-06
-4.83797e-06
-6.49051e-07
-4.95193e-06
-2.55655e-06
-5.13029e-06
-4.47844e-06
-5.45741e-06
-6.46808e-06
-5.95898e-06
-8.75856e-06
-6.37972e-06
-1.17154e-05
-5.93675e-06
-1.51488e-05
-3.73537e-06
-1.65091e-05
-9.1811e-06
-1.90658e-07
4.10425e-06
-7.43922e-07
7.68217e-06
-1.35515e-06
9.50781e-06
-1.87392e-06
1.06182e-05
-2.25787e-06
1.08961e-05
-2.5124e-06
1.02288e-05
-2.67087e-06
8.81958e-06
-2.78121e-06
7.02276e-06
-2.88807e-06
5.12165e-06
-3.01387e-06
3.24095e-06
-3.1538e-06
1.37663e-06
-3.2906e-06
-5.12251e-07
-3.42355e-06
-2.4236e-06
-3.57552e-06
-4.32647e-06
-3.83061e-06
-6.213e-06
-4.30936e-06
-8.2798e-06
-4.93853e-06
-1.10863e-05
-5.04931e-06
-1.5038e-05
-3.4836e-06
-1.80748e-05
-1.26647e-05
1.00337e-07
4.00391e-06
-1.04124e-07
7.88663e-06
-4.08844e-07
9.81253e-06
-6.55824e-07
1.08652e-05
-8.20028e-07
1.10603e-05
-9.22822e-07
1.03316e-05
-1.00074e-06
8.8975e-06
-1.08807e-06
7.11009e-06
-1.20448e-06
5.23806e-06
-1.35304e-06
3.38951e-06
-1.52691e-06
1.5505e-06
-1.71487e-06
-3.243e-07
-1.90593e-06
-2.23253e-06
-2.10418e-06
-4.12823e-06
-2.35938e-06
-5.95779e-06
-2.81252e-06
-7.82666e-06
-3.53626e-06
-1.03625e-05
-4.02226e-06
-1.4552e-05
-3.00978e-06
-1.90873e-05
-1.56745e-05
3.39587e-07
3.66433e-06
4.74907e-07
7.75132e-06
4.97002e-07
9.79044e-06
5.30558e-07
1.08316e-05
5.8938e-07
1.10015e-05
6.42595e-07
1.02784e-05
6.57371e-07
8.88273e-06
6.18621e-07
7.14884e-06
5.26527e-07
5.33015e-06
3.88078e-07
3.52796e-06
2.07669e-07
1.73091e-06
-1.58947e-08
-1.00736e-07
-2.80813e-07
-1.96761e-06
-5.84759e-07
-3.82428e-06
-9.44292e-07
-5.59826e-06
-1.43706e-06
-7.33389e-06
-2.24173e-06
-9.55786e-06
-3.0135e-06
-1.37803e-05
-2.49522e-06
-1.96055e-05
-1.81697e-05
5.1281e-07
3.15152e-06
9.58555e-07
7.30557e-06
1.28222e-06
9.46678e-06
1.59961e-06
1.05142e-05
1.90826e-06
1.06928e-05
2.15236e-06
1.00343e-05
2.29878e-06
8.73631e-06
2.34785e-06
7.09977e-06
2.3158e-06
5.3622e-06
2.21472e-06
3.62905e-06
2.04163e-06
1.90399e-06
1.77754e-06
1.63359e-07
1.43288e-06
-1.62295e-06
1.00512e-06
-3.39653e-06
4.95599e-07
-5.08874e-06
-1.67908e-07
-6.67039e-06
-1.06068e-06
-8.66509e-06
-2.04544e-06
-1.27955e-05
-1.98926e-06
-1.96617e-05
-2.0159e-05
5.8451e-07
2.56701e-06
1.28138e-06
6.6087e-06
1.88982e-06
8.85833e-06
2.48796e-06
9.9161e-06
3.06221e-06
1.01186e-05
3.54312e-06
9.55335e-06
3.88275e-06
8.39668e-06
4.07694e-06
6.90559e-06
4.14543e-06
5.29371e-06
4.10449e-06
3.66998e-06
3.9497e-06
2.05879e-06
3.66442e-06
4.48641e-07
3.23352e-06
-1.19205e-06
2.66234e-06
-2.82535e-06
1.95799e-06
-4.38439e-06
1.13778e-06
-5.85017e-06
8.60855e-08
-7.6134e-06
-1.13725e-06
-1.15722e-05
-1.5147e-06
-1.92843e-05
-2.16737e-05
5.30091e-07
2.03692e-06
1.3539e-06
5.7849e-06
2.19311e-06
8.01911e-06
3.06677e-06
9.04244e-06
3.93578e-06
9.24956e-06
4.70741e-06
8.78173e-06
5.30842e-06
7.79567e-06
5.71628e-06
6.49773e-06
5.94148e-06
5.0685e-06
5.99928e-06
3.61218e-06
5.88819e-06
2.16988e-06
5.58947e-06
7.47354e-07
5.0772e-06
-6.79774e-07
4.36368e-06
-2.11183e-06
3.45258e-06
-3.47329e-06
2.39298e-06
-4.79057e-06
1.13171e-06
-6.35212e-06
-3.26151e-07
-1.01143e-05
-1.03813e-06
-1.85723e-05
-2.27118e-05
3.61762e-07
1.67515e-06
1.17043e-06
4.97623e-06
2.21062e-06
6.97893e-06
3.36044e-06
7.89262e-06
4.53874e-06
8.07126e-06
5.62865e-06
7.69181e-06
6.53057e-06
6.89374e-06
7.19859e-06
5.82972e-06
7.62543e-06
4.64165e-06
7.81783e-06
3.41979e-06
7.77569e-06
2.21202e-06
7.49124e-06
1.03181e-06
6.90661e-06
-9.5147e-08
6.06073e-06
-1.26595e-06
4.94521e-06
-2.35777e-06
3.63464e-06
-3.48e-06
2.1875e-06
-4.90499e-06
6.31804e-07
-8.5586e-06
-3.12086e-07
-1.76284e-05
-2.30239e-05
1.47199e-08
1.66043e-06
5.4463e-07
4.44632e-06
1.65851e-06
5.86505e-06
3.08018e-06
6.47096e-06
4.60823e-06
6.54321e-06
6.06444e-06
6.2356e-06
7.31771e-06
5.64047e-06
8.30319e-06
4.84424e-06
8.98901e-06
3.95583e-06
9.37157e-06
3.03723e-06
9.4391e-06
2.14449e-06
9.19048e-06
1.28044e-06
8.62081e-06
4.74521e-07
7.68295e-06
-3.28093e-07
6.43891e-06
-1.11373e-06
4.94984e-06
-1.99093e-06
3.39886e-06
-3.354e-06
1.90911e-06
-7.06886e-06
5.20986e-07
-1.62403e-05
-2.25029e-05
-4.44201e-07
2.10464e-06
-5.16392e-08
4.05375e-06
1.03579e-06
4.77762e-06
2.63996e-06
4.86678e-06
4.44668e-06
4.7365e-06
6.20241e-06
4.47987e-06
7.74738e-06
4.0955e-06
9.00636e-06
3.58526e-06
9.92795e-06
3.03424e-06
1.05086e-05
2.45658e-06
1.07349e-05
1.91819e-06
1.06212e-05
1.39409e-06
1.01616e-05
9.34212e-07
9.37134e-06
4.62117e-07
8.29207e-06
-3.44586e-08
6.97071e-06
-6.69578e-07
5.62952e-06
-2.01281e-06
4.0928e-06
-5.53214e-06
1.90194e-06
-1.40494e-05
-2.0601e-05
-4.10179e-06
6.20642e-06
-3.6767e-06
3.62867e-06
-1.62855e-06
2.72947e-06
7.39513e-07
2.49872e-06
3.09068e-06
2.38532e-06
5.33563e-06
2.23492e-06
7.37822e-06
2.0529e-06
9.14578e-06
1.81771e-06
1.05932e-05
1.58679e-06
1.17214e-05
1.3284e-06
1.25279e-05
1.11167e-06
1.30437e-05
8.78325e-07
1.32648e-05
7.13153e-07
1.32197e-05
5.07134e-07
1.28563e-05
3.29001e-07
1.22224e-05
-3.57304e-08
1.13711e-05
-1.16147e-06
9.85026e-06
-4.0113e-06
5.52869e-06
-9.72785e-06
-1.50723e-05
6.20642e-06
9.83509e-06
1.25646e-05
1.50633e-05
1.74486e-05
1.96835e-05
2.17364e-05
2.35541e-05
2.51409e-05
2.64693e-05
2.7581e-05
2.84593e-05
2.91725e-05
2.96796e-05
3.00086e-05
2.99729e-05
2.88114e-05
2.48001e-05
1.50723e-05
)
;

boundaryField
{
    movingWall
    {
        type            calculated;
        value           uniform 0;
    }
    fixedWalls
    {
        type            calculated;
        value           uniform 0;
    }
    frontAndBack
    {
        type            empty;
        value           nonuniform List<scalar> 0();
    }
}


// ************************************************************************* //
