/*--------------------------------*- C++ -*----------------------------------*\
| =========                 |                                                 |
| \\      /  F ield         | OpenFOAM: The Open Source CFD Toolbox           |
|  \\    /   O peration     | Version:  2212                                  |
|   \\  /    A nd           | Website:  www.openfoam.com                      |
|    \\/     M anipulation  |                                                 |
\*---------------------------------------------------------------------------*/
FoamFile
{
    version     2.0;
    format      ascii;
    arch        "LSB;label=32;scalar=64";
    class       surfaceScalarField;
    location    "2.225";
    object      phi;
}
// * * * * * * * * * * * * * * * * * * * * * * * * * * * * * * * * * * * * * //

dimensions      [0 3 -1 0 0 0 0];

oriented        oriented;

internalField   nonuniform List<scalar> 
760
(
1.14831e-07
-1.14831e-07
2.05398e-07
-9.05663e-08
2.02191e-07
3.2071e-09
8.30334e-08
1.19157e-07
-1.88036e-07
2.71069e-07
-6.63328e-07
4.75292e-07
-1.3719e-06
7.08571e-07
-2.25346e-06
8.81563e-07
-3.14438e-06
8.90921e-07
-3.83693e-06
6.92546e-07
-4.16468e-06
3.27745e-07
-4.0315e-06
-1.33178e-07
-3.36746e-06
-6.64039e-07
-2.27336e-06
-1.0941e-06
-9.60252e-07
-1.31311e-06
2.26461e-07
-1.18671e-06
9.33051e-07
-7.06591e-07
9.17057e-07
1.59943e-08
4.15388e-07
5.01669e-07
4.15388e-07
5.99021e-08
-1.74733e-07
-3.73382e-08
6.67467e-09
-3.83654e-07
3.49524e-07
-1.06498e-06
8.00488e-07
-2.13081e-06
1.33689e-06
-3.53675e-06
1.88123e-06
-5.0949e-06
2.26672e-06
-6.5352e-06
2.32187e-06
-7.63009e-06
1.98581e-06
-8.2498e-06
1.31226e-06
-8.33705e-06
4.14989e-07
-7.85717e-06
-6.1306e-07
-6.83928e-06
-1.68193e-06
-5.31452e-06
-2.61885e-06
-3.42002e-06
-3.20761e-06
-1.44422e-06
-3.16251e-06
1.13536e-07
-2.26435e-06
7.67682e-07
-6.38151e-07
4.80179e-07
7.89173e-07
8.95567e-07
-1.65826e-07
-8.90703e-09
-6.42519e-07
4.83368e-07
-1.512e-06
1.219e-06
-2.82244e-06
2.11093e-06
-4.50659e-06
3.02104e-06
-6.34101e-06
3.71565e-06
-8.0447e-06
3.97041e-06
-9.42111e-06
3.69828e-06
-1.03882e-05
2.95285e-06
-1.09215e-05
1.84565e-06
-1.09778e-05
4.71288e-07
-1.05775e-05
-1.01336e-06
-9.71734e-06
-2.54213e-06
-8.34882e-06
-3.98737e-06
-6.45422e-06
-5.10221e-06
-4.13133e-06
-5.4854e-06
-1.75981e-06
-4.63587e-06
-8.60344e-08
-2.31193e-06
2.80426e-07
4.22712e-07
1.17599e-06
-4.54048e-07
4.45141e-07
-1.39441e-06
1.42373e-06
-2.75152e-06
2.57611e-06
-4.48298e-06
3.8424e-06
-6.40376e-06
4.94181e-06
-8.24931e-06
5.5612e-06
-9.80784e-06
5.52894e-06
-1.09951e-05
4.88556e-06
-1.18151e-05
3.77283e-06
-1.22907e-05
2.32127e-06
-1.24079e-05
5.8849e-07
-1.22063e-05
-1.21493e-06
-1.16661e-05
-3.08235e-06
-1.06899e-05
-4.96359e-06
-9.15583e-06
-6.63629e-06
-6.94771e-06
-7.69352e-06
-4.12356e-06
-7.46001e-06
-1.28684e-06
-5.14864e-06
1.14893e-07
-9.79023e-07
1.29089e-06
-7.44337e-07
1.18948e-06
-2.04799e-06
2.72738e-06
-3.69537e-06
4.22349e-06
-5.55626e-06
5.70329e-06
-7.40184e-06
6.78739e-06
-9.01014e-06
7.1695e-06
-1.02675e-05
6.78628e-06
-1.11652e-05
5.78328e-06
-1.17462e-05
4.35387e-06
-1.2073e-05
2.64804e-06
-1.22202e-05
7.35739e-07
-1.2199e-05
-1.23617e-06
-1.19988e-05
-3.28261e-06
-1.15406e-05
-5.42173e-06
-1.06463e-05
-7.53062e-06
-9.04085e-06
-9.29895e-06
-6.45564e-06
-1.00452e-05
-3.01845e-06
-8.58583e-06
-2.43334e-07
-3.75414e-06
1.04755e-06
-9.21831e-07
2.11131e-06
-2.40201e-06
4.20756e-06
-4.09986e-06
5.92134e-06
-5.83713e-06
7.44056e-06
-7.4074e-06
8.35767e-06
-8.65737e-06
8.41947e-06
-9.54156e-06
7.67047e-06
-1.00961e-05
6.33783e-06
-1.03958e-05
4.6536e-06
-1.05343e-05
2.78654e-06
-1.06279e-05
8.29264e-07
-1.06953e-05
-1.16872e-06
-1.07392e-05
-3.23878e-06
-1.07339e-05
-5.42693e-06
-1.05271e-05
-7.73749e-06
-9.79427e-06
-1.00317e-05
-8.0605e-06
-1.1779e-05
-4.95365e-06
-1.16927e-05
-1.08048e-06
-7.62731e-06
-3.29317e-08
-9.37551e-07
3.04886e-06
-2.38676e-06
5.65677e-06
-3.93715e-06
7.47173e-06
-5.40199e-06
8.9054e-06
-6.62327e-06
9.57895e-06
-7.50836e-06
9.30456e-06
-8.05715e-06
8.21926e-06
-8.33274e-06
6.61341e-06
-8.42857e-06
4.74943e-06
-8.44352e-06
2.80149e-06
-8.46892e-06
8.5467e-07
-8.54209e-06
-1.09555e-06
-8.68193e-06
-3.09894e-06
-8.90291e-06
-5.20595e-06
-9.14475e-06
-7.49566e-06
-9.16547e-06
-1.0011e-05
-8.44505e-06
-1.24994e-05
-6.25977e-06
-1.3878e-05
-2.27965e-06
-1.16074e-05
-2.31259e-06
-7.91196e-07
3.84006e-06
-2.04249e-06
6.90806e-06
-3.32493e-06
8.75418e-06
-4.4633e-06
1.00438e-05
-5.34891e-06
1.04646e-05
-5.93714e-06
9.89279e-06
-6.25564e-06
8.53776e-06
-6.37824e-06
6.73602e-06
-6.39683e-06
4.76801e-06
-6.39291e-06
2.79757e-06
-6.41506e-06
8.76821e-07
-6.48564e-06
-1.02497e-06
-6.63068e-06
-2.95389e-06
-6.88727e-06
-4.94936e-06
-7.2733e-06
-7.10963e-06
-7.68804e-06
-9.59628e-06
-7.70241e-06
-1.2485e-05
-6.4997e-06
-1.50807e-05
-3.39814e-06
-1.4709e-05
-5.71073e-06
-5.28561e-07
4.36862e-06
-1.47524e-06
7.85474e-06
-2.4362e-06
9.71514e-06
-3.24801e-06
1.08556e-05
-3.84489e-06
1.10614e-05
-4.21692e-06
1.02648e-05
-4.40397e-06
8.7248e-06
-4.47435e-06
6.8064e-06
-4.50151e-06
4.79517e-06
-4.53698e-06
2.83305e-06
-4.59811e-06
9.3795e-07
-4.69056e-06
-9.32523e-07
-4.82953e-06
-2.81492e-06
-5.05026e-06
-4.72864e-06
-5.41764e-06
-6.74225e-06
-5.94331e-06
-9.07062e-06
-6.38254e-06
-1.20458e-05
-5.97205e-06
-1.54912e-05
-3.79628e-06
-1.68847e-05
-9.50701e-06
-1.96846e-07
4.56546e-06
-7.85242e-07
8.44313e-06
-1.40926e-06
1.03392e-05
-1.91639e-06
1.13627e-05
-2.27023e-06
1.14153e-05
-2.48378e-06
1.04784e-05
-2.5973e-06
8.83832e-06
-2.66153e-06
6.87063e-06
-2.7224e-06
4.85604e-06
-2.80677e-06
2.91741e-06
-2.91856e-06
1.04975e-06
-3.05449e-06
-7.96598e-07
-3.2164e-06
-2.65301e-06
-3.42255e-06
-4.52249e-06
-3.73778e-06
-6.42701e-06
-4.25439e-06
-8.55401e-06
-4.89912e-06
-1.14011e-05
-5.03155e-06
-1.53588e-05
-3.48947e-06
-1.84268e-05
-1.29965e-05
1.37259e-07
4.4282e-06
-6.43204e-08
8.64471e-06
-3.67492e-07
1.06423e-05
-5.99159e-07
1.15944e-05
-7.38136e-07
1.15543e-05
-8.10573e-07
1.05508e-05
-8.55643e-07
8.88339e-06
-9.08937e-07
6.92393e-06
-9.90298e-07
4.9374e-06
-1.1064e-06
3.03352e-06
-1.2573e-06
1.20064e-06
-1.44209e-06
-6.11809e-07
-1.66012e-06
-2.43498e-06
-1.90988e-06
-4.27273e-06
-2.23178e-06
-6.1051e-06
-2.73622e-06
-8.04958e-06
-3.47946e-06
-1.06578e-05
-3.98057e-06
-1.48576e-05
-2.99343e-06
-1.9414e-05
-1.59899e-05
4.15033e-07
4.01317e-06
5.89337e-07
8.47041e-06
6.35944e-07
1.05957e-05
6.89575e-07
1.15407e-05
7.65513e-07
1.14783e-05
8.31397e-07
1.04849e-05
8.57679e-07
8.85711e-06
8.31227e-07
6.95038e-06
7.51918e-07
5.01671e-06
6.25325e-07
3.16011e-06
4.5076e-07
1.3752e-06
2.23356e-07
-3.84405e-07
-5.40538e-08
-2.15757e-06
-3.97424e-07
-3.92936e-06
-8.09512e-07
-5.69301e-06
-1.35191e-06
-7.50718e-06
-2.17877e-06
-9.83098e-06
-2.95993e-06
-1.40765e-05
-2.46514e-06
-1.99088e-05
-1.8455e-05
6.16537e-07
3.39663e-06
1.13775e-06
7.94919e-06
1.50402e-06
1.02295e-05
1.84143e-06
1.12033e-05
2.15326e-06
1.11665e-05
2.39162e-06
1.02466e-05
2.52976e-06
8.71897e-06
2.56953e-06
6.91061e-06
2.5261e-06
5.06014e-06
2.41163e-06
3.27458e-06
2.22574e-06
1.56109e-06
1.95024e-06
-1.08901e-07
1.59044e-06
-1.79777e-06
1.14326e-06
-3.48219e-06
6.02454e-07
-5.1522e-06
-9.38377e-08
-6.81089e-06
-9.97339e-07
-8.92748e-06
-1.98328e-06
-1.30905e-05
-1.95628e-06
-1.99358e-05
-2.04113e-05
6.99063e-07
2.69757e-06
1.50425e-06
7.14401e-06
2.17758e-06
9.55612e-06
2.80388e-06
1.0577e-05
3.37854e-06
1.05919e-05
3.84107e-06
9.78403e-06
4.15315e-06
8.40689e-06
4.31476e-06
6.74899e-06
4.34641e-06
5.02849e-06
4.26662e-06
3.35436e-06
4.07684e-06
1.75088e-06
3.76743e-06
2.00503e-07
3.32486e-06
-1.35519e-06
2.74925e-06
-2.90658e-06
2.04025e-06
-4.4432e-06
1.2115e-06
-5.98214e-06
1.5524e-07
-7.87122e-06
-1.0718e-06
-1.18635e-05
-1.48177e-06
-1.95258e-05
-2.18931e-05
6.36125e-07
2.06145e-06
1.59462e-06
6.18552e-06
2.52197e-06
8.62877e-06
3.44161e-06
9.65738e-06
4.31661e-06
9.71685e-06
5.06574e-06
9.0349e-06
5.62691e-06
7.84572e-06
5.98488e-06
6.39102e-06
6.15411e-06
4.85927e-06
6.15439e-06
3.35408e-06
5.99165e-06
1.91363e-06
5.65668e-06
5.35473e-07
5.13076e-06
-8.29279e-07
4.41984e-06
-2.19566e-06
3.52104e-06
-3.54441e-06
2.46772e-06
-4.92882e-06
1.206e-06
-6.6095e-06
-2.71555e-07
-1.03859e-05
-1.00072e-06
-1.87966e-05
-2.28938e-05
4.4303e-07
1.61841e-06
1.39967e-06
5.22888e-06
2.56216e-06
7.46628e-06
3.7919e-06
8.42764e-06
5.00007e-06
8.50868e-06
6.07755e-06
7.95742e-06
6.93744e-06
6.98582e-06
7.54565e-06
5.78282e-06
7.90339e-06
4.50153e-06
8.02516e-06
3.23231e-06
7.91892e-06
2.01986e-06
7.58625e-06
8.68148e-07
6.98513e-06
-2.28165e-07
6.14003e-06
-1.35056e-06
5.04156e-06
-2.44594e-06
3.74206e-06
-3.62932e-06
2.29171e-06
-5.15914e-06
7.30021e-07
-8.82425e-06
-2.54587e-07
-1.7812e-05
-2.31484e-05
7.18481e-08
1.54657e-06
7.35214e-07
4.56551e-06
1.99498e-06
6.20652e-06
3.53047e-06
6.89215e-06
5.12544e-06
6.91371e-06
6.59652e-06
6.48634e-06
7.82331e-06
5.75903e-06
8.75557e-06
4.85055e-06
9.37381e-06
3.88329e-06
9.68512e-06
2.921e-06
9.69019e-06
2.01479e-06
9.39765e-06
1.16069e-06
8.79311e-06
3.76382e-07
7.85641e-06
-4.13859e-07
6.61914e-06
-1.20867e-06
5.12936e-06
-2.13954e-06
3.54602e-06
-3.57581e-06
2.01025e-06
-7.28849e-06
5.61251e-07
-1.6363e-05
-2.25872e-05
-4.69916e-07
2.01648e-06
5.86231e-08
4.03697e-06
1.32495e-06
4.94019e-06
3.10769e-06
5.10941e-06
5.04352e-06
4.97787e-06
6.86191e-06
4.66796e-06
8.41327e-06
4.20767e-06
9.63883e-06
3.62499e-06
1.05035e-05
3.01858e-06
1.10174e-05
2.40716e-06
1.118e-05
1.85215e-06
1.10136e-05
1.32716e-06
1.05237e-05
8.66226e-07
9.71742e-06
3.92431e-07
8.61014e-06
-1.01393e-07
7.24908e-06
-7.78475e-07
5.83496e-06
-2.16169e-06
4.21248e-06
-5.666e-06
1.95197e-06
-1.41025e-05
-2.06352e-05
-4.13147e-06
6.14795e-06
-3.65929e-06
3.56479e-06
-1.46924e-06
2.75014e-06
1.07123e-06
2.56894e-06
3.57091e-06
2.47819e-06
5.91737e-06
2.3215e-06
8.00834e-06
2.1167e-06
9.77848e-06
1.85484e-06
1.11971e-05
1.6e-06
1.22794e-05
1.32486e-06
1.30348e-05
1.09673e-06
1.3503e-05
8.58915e-07
1.36799e-05
6.89348e-07
1.35894e-05
4.82894e-07
1.31909e-05
2.97183e-07
1.25038e-05
-9.14671e-08
1.1565e-05
-1.22281e-06
9.94547e-06
-4.04651e-06
5.56801e-06
-9.72504e-06
-1.50672e-05
6.14795e-06
9.71275e-06
1.24629e-05
1.50318e-05
1.751e-05
1.98315e-05
2.19482e-05
2.38031e-05
2.54031e-05
2.67279e-05
2.78247e-05
2.86836e-05
2.93729e-05
2.98558e-05
3.0153e-05
3.00615e-05
2.88387e-05
2.47922e-05
1.50672e-05
)
;

boundaryField
{
    movingWall
    {
        type            calculated;
        value           uniform 0;
    }
    fixedWalls
    {
        type            calculated;
        value           uniform 0;
    }
    frontAndBack
    {
        type            empty;
        value           nonuniform List<scalar> 0();
    }
}


// ************************************************************************* //
