/*--------------------------------*- C++ -*----------------------------------*\
| =========                 |                                                 |
| \\      /  F ield         | OpenFOAM: The Open Source CFD Toolbox           |
|  \\    /   O peration     | Version:  2212                                  |
|   \\  /    A nd           | Website:  www.openfoam.com                      |
|    \\/     M anipulation  |                                                 |
\*---------------------------------------------------------------------------*/
FoamFile
{
    version     2.0;
    format      ascii;
    arch        "LSB;label=32;scalar=64";
    class       surfaceScalarField;
    location    "0.425";
    object      phi;
}
// * * * * * * * * * * * * * * * * * * * * * * * * * * * * * * * * * * * * * //

dimensions      [0 3 -1 0 0 0 0];

oriented        oriented;

internalField   nonuniform List<scalar> 
760
(
-2.78099e-08
2.78097e-08
-9.16525e-08
6.38426e-08
-1.69669e-07
7.80161e-08
-2.51565e-07
8.18968e-08
-3.34165e-07
8.25997e-08
-4.16396e-07
8.22311e-08
-4.97168e-07
8.07721e-08
-5.7464e-07
7.74719e-08
-6.45908e-07
7.12682e-08
-7.06815e-07
6.09067e-08
-7.51874e-07
4.50586e-08
-7.74408e-07
2.25343e-08
-7.67019e-07
-7.38937e-09
-7.22786e-07
-4.42325e-08
-6.37474e-07
-8.53121e-08
-5.12239e-07
-1.25235e-07
-3.56783e-07
-1.55456e-07
-1.92507e-07
-1.64276e-07
-5.62266e-08
-1.36281e-07
-5.62265e-08
-6.88193e-08
9.6629e-08
-1.96407e-07
1.9143e-07
-3.46567e-07
2.28177e-07
-5.0311e-07
2.3844e-07
-6.5939e-07
2.38879e-07
-8.12134e-07
2.34976e-07
-9.58398e-07
2.27035e-07
-1.09432e-06
2.13397e-07
-1.21462e-06
1.91561e-07
-1.31227e-06
1.58562e-07
-1.37855e-06
1.11338e-07
-1.40342e-06
4.74061e-08
-1.37609e-06
-3.47235e-08
-1.28656e-06
-1.33762e-07
-1.12964e-06
-2.42225e-07
-9.08422e-07
-3.46457e-07
-6.3937e-07
-4.24508e-07
-3.57094e-07
-4.46551e-07
-1.17357e-07
-3.76018e-07
-1.73583e-07
-8.90728e-08
1.85702e-07
-2.48082e-07
3.50439e-07
-4.32267e-07
4.12362e-07
-6.22779e-07
4.28952e-07
-8.11876e-07
4.27976e-07
-9.95614e-07
4.18714e-07
-1.1705e-06
4.01921e-07
-1.33217e-06
3.75062e-07
-1.47476e-06
3.34158e-07
-1.59059e-06
2.7439e-07
-1.6699e-06
1.90644e-07
-1.70109e-06
7.86021e-08
-1.67098e-06
-6.48388e-08
-1.56666e-06
-2.38083e-07
-1.37968e-06
-4.29199e-07
-1.11148e-06
-6.14664e-07
-7.81158e-07
-7.54826e-07
-4.33004e-07
-7.94705e-07
-1.39537e-07
-6.69486e-07
-3.1312e-07
-9.71678e-08
2.8287e-07
-2.70881e-07
5.24153e-07
-4.71285e-07
6.12766e-07
-6.78075e-07
6.35742e-07
-8.83464e-07
6.33365e-07
-1.08383e-06
6.19077e-07
-1.2761e-06
5.94194e-07
-1.45639e-06
5.55352e-07
-1.61926e-06
4.97024e-07
-1.75709e-06
4.12227e-07
-1.85954e-06
2.93094e-07
-1.91323e-06
1.32289e-07
-1.9017e-06
-7.63737e-08
-1.80525e-06
-3.34531e-07
-1.60777e-06
-6.26673e-07
-1.30397e-06
-9.18463e-07
-9.13178e-07
-1.14562e-06
-4.93917e-07
-1.21397e-06
-1.48131e-07
-1.01527e-06
-4.61252e-07
-1.00143e-07
3.83013e-07
-2.81017e-07
7.05027e-07
-4.9015e-07
8.21899e-07
-7.06493e-07
8.52085e-07
-9.22675e-07
8.49548e-07
-1.13595e-06
8.32347e-07
-1.34432e-06
8.02571e-07
-1.54511e-06
7.56143e-07
-1.73404e-06
6.85949e-07
-1.90427e-06
5.82463e-07
-2.04524e-06
4.34061e-07
-2.14133e-06
2.28374e-07
-2.1722e-06
-4.54997e-08
-2.10701e-06
-3.99719e-07
-1.91544e-06
-8.18244e-07
-1.57681e-06
-1.25709e-06
-1.10436e-06
-1.61808e-06
-5.77033e-07
-1.74129e-06
-1.52783e-07
-1.43952e-06
-6.14035e-07
-1.01208e-07
4.84221e-07
-2.86366e-07
8.90184e-07
-5.01505e-07
1.03704e-06
-7.25184e-07
1.07576e-06
-9.50712e-07
1.07508e-06
-1.17659e-06
1.05823e-06
-1.40248e-06
1.02846e-06
-1.62763e-06
9.81285e-07
-1.84985e-06
9.08172e-07
-2.06426e-06
7.96875e-07
-2.26132e-06
6.31126e-07
-2.42382e-06
3.90864e-07
-2.52839e-06
5.90789e-08
-2.52974e-06
-3.98368e-07
-2.37494e-06
-9.73053e-07
-2.01111e-06
-1.62092e-06
-1.42662e-06
-2.20256e-06
-7.21326e-07
-2.44659e-06
-1.58304e-07
-2.00255e-06
-7.72338e-07
-1.01469e-07
5.8569e-07
-2.89817e-07
1.07853e-06
-5.09861e-07
1.25708e-06
-7.39836e-07
1.30574e-06
-9.73877e-07
1.30912e-06
-1.21206e-06
1.29641e-06
-1.45621e-06
1.27261e-06
-1.7084e-06
1.23348e-06
-1.9699e-06
1.16967e-06
-2.23971e-06
1.06668e-06
-2.51208e-06
9.03492e-07
-2.77274e-06
6.51524e-07
-2.99103e-06
2.77375e-07
-3.12359e-06
-2.65807e-07
-3.0755e-06
-1.02114e-06
-2.73281e-06
-1.96361e-06
-2.0131e-06
-2.92227e-06
-1.01756e-06
-3.44213e-06
-1.88442e-07
-2.83166e-06
-9.60779e-07
-1.012e-07
6.8689e-07
-2.92092e-07
1.26942e-06
-5.16106e-07
1.4811e-06
-7.50999e-07
1.54063e-06
-9.91763e-07
1.54988e-06
-1.24027e-06
1.54492e-06
-1.50104e-06
1.53338e-06
-1.77985e-06
1.51229e-06
-2.08304e-06
1.47285e-06
-2.4162e-06
1.39984e-06
-2.78188e-06
1.26917e-06
-3.1753e-06
1.04494e-06
-3.57274e-06
6.74818e-07
-3.94162e-06
1.0307e-07
-4.13478e-06
-8.27983e-07
-3.93103e-06
-2.16736e-06
-3.08978e-06
-3.76352e-06
-1.66383e-06
-4.86809e-06
-3.33526e-07
-4.16196e-06
-1.29431e-06
-1.00526e-07
7.87416e-07
-2.93402e-07
1.4623e-06
-5.20138e-07
1.70783e-06
-7.5766e-07
1.77815e-06
-1.00171e-06
1.79393e-06
-1.25605e-06
1.79926e-06
-1.52816e-06
1.80549e-06
-1.82833e-06
1.81245e-06
-2.16958e-06
1.81411e-06
-2.5676e-06
1.79787e-06
-3.03981e-06
1.74138e-06
-3.60324e-06
1.60837e-06
-4.26695e-06
1.33853e-06
-4.97947e-06
8.15595e-07
-5.61827e-06
-1.89183e-07
-5.72842e-06
-2.05721e-06
-4.84815e-06
-4.64379e-06
-2.94264e-06
-6.7736e-06
-8.20615e-07
-6.28399e-06
-2.11492e-06
-9.98301e-08
8.87246e-07
-2.94415e-07
1.65689e-06
-5.22358e-07
1.93578e-06
-7.59207e-07
2.015e-06
-1.00123e-06
2.03595e-06
-1.25389e-06
2.05192e-06
-1.52756e-06
2.07916e-06
-1.83714e-06
2.12203e-06
-2.20324e-06
2.18022e-06
-2.65419e-06
2.24881e-06
-3.22835e-06
2.31554e-06
-3.97634e-06
2.35636e-06
-4.95227e-06
2.31445e-06
-6.13889e-06
2.00221e-06
-7.27633e-06
9.48256e-07
-7.79414e-06
-1.53939e-06
-7.04409e-06
-5.39385e-06
-4.92423e-06
-8.89346e-06
-1.92297e-06
-9.28524e-06
-4.0379e-06
-1.00078e-07
9.87324e-07
-2.96972e-07
1.85378e-06
-5.24698e-07
2.1635e-06
-7.56754e-07
2.24706e-06
-9.89622e-07
2.26882e-06
-1.23008e-06
2.29238e-06
-1.49066e-06
2.33975e-06
-1.7899e-06
2.42127e-06
-2.15498e-06
2.5453e-06
-2.62645e-06
2.72028e-06
-3.26453e-06
2.95361e-06
-4.1515e-06
3.24334e-06
-5.36814e-06
3.53109e-06
-6.8864e-06
3.52047e-06
-8.3524e-06
2.41426e-06
-9.0779e-06
-8.1389e-07
-8.67413e-06
-5.79762e-06
-6.91279e-06
-1.06548e-05
-3.49629e-06
-1.27017e-05
-7.53419e-06
-1.03193e-07
1.09052e-06
-3.04811e-07
2.0554e-06
-5.31551e-07
2.39024e-06
-7.54243e-07
2.46975e-06
-9.69477e-07
2.48405e-06
-1.18479e-06
2.50769e-06
-1.41346e-06
2.56843e-06
-1.67514e-06
2.68294e-06
-1.99934e-06
2.8695e-06
-2.43183e-06
3.15278e-06
-3.04239e-06
3.56417e-06
-3.92025e-06
4.12119e-06
-5.11995e-06
4.73079e-06
-6.54155e-06
4.94207e-06
-7.85612e-06
3.72883e-06
-8.44647e-06
-2.23537e-07
-8.50072e-06
-5.74337e-06
-7.53749e-06
-1.1618e-05
-4.63499e-06
-1.56042e-05
-1.21692e-05
-1.12554e-07
1.20307e-06
-3.24434e-07
2.26728e-06
-5.50786e-07
2.61659e-06
-7.59473e-07
2.67844e-06
-9.47867e-07
2.67245e-06
-1.12401e-06
2.68383e-06
-1.30011e-06
2.74453e-06
-1.49293e-06
2.87576e-06
-1.72686e-06
3.10343e-06
-2.03857e-06
3.46449e-06
-2.48006e-06
4.00566e-06
-3.10538e-06
4.74651e-06
-3.91155e-06
5.53696e-06
-4.76511e-06
5.79564e-06
-5.44718e-06
4.4109e-06
-6.08914e-06
4.18417e-07
-6.4653e-06
-5.36721e-06
-6.35953e-06
-1.17238e-05
-4.42509e-06
-1.75387e-05
-1.65943e-05
-1.3432e-07
1.33739e-06
-3.66652e-07
2.49961e-06
-5.94309e-07
2.84425e-06
-7.8405e-07
2.86818e-06
-9.36505e-07
2.8249e-06
-1.06057e-06
2.8079e-06
-1.16568e-06
2.84964e-06
-1.26172e-06
2.9718e-06
-1.36056e-06
3.20227e-06
-1.4769e-06
3.58082e-06
-1.62502e-06
4.15379e-06
-1.8077e-06
4.92919e-06
-2.00185e-06
5.73111e-06
-2.15361e-06
5.9474e-06
-2.31026e-06
4.56754e-06
-2.70537e-06
8.13532e-07
-3.45725e-06
-4.61532e-06
-4.17365e-06
-1.10074e-05
-3.29739e-06
-1.8415e-05
-1.98917e-05
-1.77899e-07
1.51529e-06
-4.48771e-07
2.77048e-06
-6.83026e-07
3.07851e-06
-8.47283e-07
3.03244e-06
-9.53368e-07
2.93099e-06
-1.01447e-06
2.86901e-06
-1.03655e-06
2.87172e-06
-1.02021e-06
2.95546e-06
-9.61664e-07
3.14372e-06
-8.51038e-07
3.47019e-06
-6.67226e-07
3.96998e-06
-3.6667e-07
4.62863e-06
4.1761e-08
5.32268e-06
4.56381e-07
5.53278e-06
6.84296e-07
4.33963e-06
4.61678e-07
1.03615e-06
-3.67755e-07
-3.78589e-06
-1.71501e-06
-9.66014e-06
-1.99842e-06
-1.81315e-05
-2.18901e-05
-2.60762e-07
1.77605e-06
-5.93215e-07
3.10293e-06
-8.27218e-07
3.31251e-06
-9.56695e-07
3.16191e-06
-1.00991e-06
2.98421e-06
-1.00405e-06
2.86314e-06
-9.41722e-07
2.80939e-06
-8.14326e-07
2.82806e-06
-6.03857e-07
2.93325e-06
-2.81542e-07
3.14788e-06
2.06854e-07
3.48158e-06
8.76995e-07
3.95849e-06
1.75456e-06
4.44511e-06
2.72102e-06
4.56632e-06
3.3752e-06
3.68546e-06
3.21475e-06
1.1966e-06
2.0391e-06
-2.61024e-06
2.14605e-07
-7.83564e-06
-7.39683e-07
-1.71773e-05
-2.26298e-05
-4.3467e-07
2.21072e-06
-9.19185e-07
3.58745e-06
-1.12908e-06
3.5224e-06
-1.1639e-06
3.19673e-06
-1.13034e-06
2.95066e-06
-1.04985e-06
2.78265e-06
-9.10499e-07
2.67004e-06
-6.88882e-07
2.60644e-06
-3.5639e-07
2.60076e-06
1.30317e-07
2.66117e-06
7.94241e-07
2.81766e-06
1.69981e-06
3.05292e-06
2.83324e-06
3.31168e-06
4.04436e-06
3.3552e-06
4.87388e-06
2.85593e-06
4.84424e-06
1.22624e-06
3.67194e-06
-1.43794e-06
1.92468e-06
-6.08839e-06
4.32827e-07
-1.56854e-05
-2.21969e-05
-4.29707e-07
2.64043e-06
-1.00602e-06
4.16376e-06
-1.3246e-06
3.84099e-06
-1.43385e-06
3.30598e-06
-1.38572e-06
2.90253e-06
-1.22452e-06
2.62145e-06
-9.62637e-07
2.40816e-06
-5.92389e-07
2.23619e-06
-1.08629e-07
2.117e-06
5.15325e-07
2.03722e-06
1.30306e-06
2.02993e-06
2.29781e-06
2.05817e-06
3.46679e-06
2.1427e-06
4.70173e-06
2.12026e-06
5.63954e-06
1.91812e-06
5.81115e-06
1.05464e-06
5.15311e-06
-7.79905e-07
3.80195e-06
-4.73723e-06
1.74799e-06
-1.36314e-05
-2.04489e-05
-3.92864e-06
6.56908e-06
-3.78605e-06
4.02116e-06
-2.65094e-06
2.70589e-06
-1.55485e-06
2.20989e-06
-5.51092e-07
1.89877e-06
4.23332e-07
1.64702e-06
1.38155e-06
1.44994e-06
2.3347e-06
1.28304e-06
3.28062e-06
1.17109e-06
4.24643e-06
1.07141e-06
5.24378e-06
1.03257e-06
6.30673e-06
9.95223e-07
7.423e-06
1.02642e-06
8.53644e-06
1.00682e-06
9.55851e-06
8.96053e-07
1.01926e-05
4.20513e-07
1.01017e-05
-6.8896e-07
9.2406e-06
-3.87614e-06
5.32542e-06
-9.71625e-06
-1.51235e-05
6.56908e-06
1.05902e-05
1.32961e-05
1.5506e-05
1.74048e-05
1.90518e-05
2.05017e-05
2.17848e-05
2.29559e-05
2.40273e-05
2.50598e-05
2.60551e-05
2.70815e-05
2.80883e-05
2.89844e-05
2.94049e-05
2.87159e-05
2.48398e-05
1.51235e-05
)
;

boundaryField
{
    movingWall
    {
        type            calculated;
        value           uniform 0;
    }
    fixedWalls
    {
        type            calculated;
        value           uniform 0;
    }
    frontAndBack
    {
        type            empty;
        value           nonuniform List<scalar> 0();
    }
}


// ************************************************************************* //
