/*--------------------------------*- C++ -*----------------------------------*\
| =========                 |                                                 |
| \\      /  F ield         | OpenFOAM: The Open Source CFD Toolbox           |
|  \\    /   O peration     | Version:  2212                                  |
|   \\  /    A nd           | Website:  www.openfoam.com                      |
|    \\/     M anipulation  |                                                 |
\*---------------------------------------------------------------------------*/
FoamFile
{
    version     2.0;
    format      ascii;
    arch        "LSB;label=32;scalar=64";
    class       volVectorField;
    location    "0.445";
    object      U;
}
// * * * * * * * * * * * * * * * * * * * * * * * * * * * * * * * * * * * * * //

dimensions      [0 1 -1 0 0 0 0];

internalField   nonuniform List<vector> 
400
(
(-0.000197062 0.000182851 0)
(-0.00112041 0.000496631 0)
(-0.00269055 0.000623929 0)
(-0.00439728 0.000661095 0)
(-0.00613208 0.000675665 0)
(-0.00787438 0.000686811 0)
(-0.00960818 0.00069333 0)
(-0.0113052 0.000687222 0)
(-0.012916 0.000657374 0)
(-0.0143644 0.000590351 0)
(-0.0155434 0.000471289 0)
(-0.0163152 0.000285786 0)
(-0.0165174 2.33876e-05 0)
(-0.0159814 -0.000315034 0)
(-0.0145752 -0.000701968 0)
(-0.0122632 -0.00108133 0)
(-0.00917477 -0.00136462 0)
(-0.00564489 -0.00143548 0)
(-0.00225283 -0.00115066 0)
(-0.000340022 -0.000403835 0)
(-0.000562538 0.00115402 0)
(-0.00255284 0.00242033 0)
(-0.00561304 0.00292394 0)
(-0.0089045 0.00307527 0)
(-0.0122225 0.00310834 0)
(-0.0155088 0.00309683 0)
(-0.0187096 0.00304125 0)
(-0.0217559 0.00291453 0)
(-0.0245503 0.00267708 0)
(-0.0269575 0.00228147 0)
(-0.0288005 0.00167695 0)
(-0.0298638 0.000818347 0)
(-0.0299041 -0.000318464 0)
(-0.0286745 -0.00170968 0)
(-0.0259918 -0.00324676 0)
(-0.0218311 -0.00471358 0)
(-0.0164194 -0.00577655 0)
(-0.0102998 -0.0060077 0)
(-0.00441957 -0.00491798 0)
(-0.000844331 -0.00207384 0)
(-0.000744271 0.00290593 0)
(-0.00327069 0.00556627 0)
(-0.00706009 0.00659327 0)
(-0.0110926 0.00689565 0)
(-0.0151306 0.00692296 0)
(-0.0191076 0.00682464 0)
(-0.0229577 0.00660897 0)
(-0.0266006 0.00622784 0)
(-0.0299274 0.00560736 0)
(-0.0327889 0.00465828 0)
(-0.0349888 0.00328555 0)
(-0.0362823 0.00140643 0)
(-0.0363804 -0.00101998 0)
(-0.034971 -0.00394819 0)
(-0.0317943 -0.00716271 0)
(-0.026763 -0.0102243 0)
(-0.0201123 -0.0124358 0)
(-0.0125238 -0.0128958 0)
(-0.00525182 -0.0106328 0)
(-0.000953177 -0.00476065 0)
(-0.000809751 0.0049005 0)
(-0.00357364 0.00912442 0)
(-0.00771363 0.0107099 0)
(-0.0121 0.0111594 0)
(-0.0164868 0.0111697 0)
(-0.0208172 0.0109734 0)
(-0.0250345 0.0105885 0)
(-0.029069 0.00994659 0)
(-0.0328233 0.0089388 0)
(-0.036156 0.00742944 0)
(-0.0388675 0.00526853 0)
(-0.0406886 0.00231701 0)
(-0.041275 -0.00151215 0)
(-0.040195 -0.0061967 0)
(-0.0370085 -0.0114317 0)
(-0.0314463 -0.016522 0)
(-0.0236506 -0.0202715 0)
(-0.0144628 -0.021068 0)
(-0.00565328 -0.0172527 0)
(-0.000839628 -0.00759392 0)
(-0.000825225 0.00698556 0)
(-0.00368751 0.0128633 0)
(-0.00800253 0.015033 0)
(-0.0125792 0.0156386 0)
(-0.0171739 0.0156483 0)
(-0.021749 0.0153859 0)
(-0.0262705 0.0148823 0)
(-0.030696 0.0140513 0)
(-0.0349575 0.012748 0)
(-0.0389397 0.0107831 0)
(-0.0424538 0.007932 0)
(-0.0452108 0.0039601 0)
(-0.046804 -0.00132841 0)
(-0.0466263 -0.00798691 0)
(-0.0439277 -0.0157245 0)
(-0.038065 -0.0235723 0)
(-0.0288768 -0.0296168 0)
(-0.0173082 -0.0310471 0)
(-0.0060116 -0.0250302 0)
(-0.000518335 -0.0103637 0)
(-0.000820593 0.00910117 0)
(-0.00372281 0.0167009 0)
(-0.00813961 0.0194886 0)
(-0.0128426 0.0202751 0)
(-0.0175956 0.0203226 0)
(-0.0223863 0.0200567 0)
(-0.0272144 0.0195282 0)
(-0.0320792 0.0186381 0)
(-0.0369622 0.0172076 0)
(-0.0418 0.0149874 0)
(-0.0464467 0.0116558 0)
(-0.0506279 0.00683013 0)
(-0.0538763 0.000126745 0)
(-0.0554173 -0.0086883 0)
(-0.0540785 -0.0195646 0)
(-0.0485068 -0.0313504 0)
(-0.0377615 -0.0411715 0)
(-0.0225126 -0.0440882 0)
(-0.00670954 -0.0348222 0)
(0.000113215 -0.0129468 0)
(-0.000805718 0.0112172 0)
(-0.00372074 0.020595 0)
(-0.00820592 0.0240368 0)
(-0.0130029 0.0250361 0)
(-0.0178842 0.0251703 0)
(-0.0228675 0.0249817 0)
(-0.0279951 0.0245525 0)
(-0.0333237 0.0237819 0)
(-0.0389084 0.0224668 0)
(-0.0447771 0.0203022 0)
(-0.0508877 0.0168601 0)
(-0.0570504 0.0115774 0)
(-0.0628153 0.00379178 0)
(-0.0673893 -0.00717017 0)
(-0.0691374 -0.0217676 0)
(-0.0654592 -0.0391803 0)
(-0.053634 -0.0555413 0)
(-0.0330865 -0.0622259 0)
(-0.00922626 -0.0484606 0)
(0.00105081 -0.0155086 0)
(-0.000782981 0.0133158 0)
(-0.00369256 0.0245211 0)
(-0.00822179 0.0286496 0)
(-0.0130796 0.0298892 0)
(-0.0180455 0.0301572 0)
(-0.0231691 0.0301304 0)
(-0.0285422 0.0299394 0)
(-0.0342925 0.0295017 0)
(-0.0405754 0.0286133 0)
(-0.0475573 0.026938 0)
(-0.0553798 0.0239651 0)
(-0.064088 0.0189579 0)
(-0.0735363 0.0108897 0)
(-0.083159 -0.00159452 0)
(-0.0909699 -0.019892 0)
(-0.0923385 -0.0450006 0)
(-0.0809543 -0.0724888 0)
(-0.0540674 -0.0879359 0)
(-0.0182107 -0.0698551 0)
(0.00158453 -0.0197679 0)
(-0.000753937 0.0153824 0)
(-0.00364307 0.0284593 0)
(-0.00819124 0.0332964 0)
(-0.0130646 0.0347883 0)
(-0.018044 0.0352197 0)
(-0.0232099 0.0354247 0)
(-0.0287052 0.0356048 0)
(-0.0347368 0.0357253 0)
(-0.041582 0.0356234 0)
(-0.0495936 0.034991 0)
(-0.0592011 0.0333136 0)
(-0.0709154 0.0297904 0)
(-0.085256 0.0231392 0)
(-0.102208 0.0110264 0)
(-0.119782 -0.0105825 0)
(-0.129837 -0.0456438 0)
(-0.120632 -0.090818 0)
(-0.0893087 -0.122838 0)
(-0.0423055 -0.105265 0)
(-0.000763996 -0.0306505 0)
(-0.000723477 0.0174073 0)
(-0.00358513 0.0323926 0)
(-0.00812885 0.03794 0)
(-0.0129599 0.0396658 0)
(-0.0178518 0.0402554 0)
(-0.02291 0.040725 0)
(-0.0283223 0.0413727 0)
(-0.0343692 0.0422496 0)
(-0.0414513 0.0432949 0)
(-0.0501298 0.0443291 0)
(-0.0611786 0.0449962 0)
(-0.0757065 0.044676 0)
(-0.0953568 0.0420421 0)
(-0.121355 0.0331679 0)
(-0.149858 0.00898156 0)
(-0.168068 -0.0405599 0)
(-0.161854 -0.110859 0)
(-0.133187 -0.166473 0)
(-0.0839015 -0.159147 0)
(-0.00985408 -0.0553678 0)
(-0.000703381 0.0193942 0)
(-0.00355082 0.0363157 0)
(-0.00807894 0.0425407 0)
(-0.0128041 0.0444346 0)
(-0.017482 0.0451221 0)
(-0.022234 0.0458258 0)
(-0.0272774 0.0469634 0)
(-0.0329397 0.0487082 0)
(-0.0397076 0.0511699 0)
(-0.0483056 0.0544229 0)
(-0.0597781 0.058472 0)
(-0.0756582 0.0630732 0)
(-0.0984493 0.0666281 0)
(-0.130296 0.0622628 0)
(-0.16541 0.0338956 0)
(-0.185765 -0.0342736 0)
(-0.181744 -0.131837 0)
(-0.163389 -0.213528 0)
(-0.121996 -0.230174 0)
(-0.0251595 -0.109214 0)
(-0.000716727 0.0213763 0)
(-0.00360315 0.0402525 0)
(-0.00813315 0.0470701 0)
(-0.0126936 0.0489979 0)
(-0.017016 0.0496473 0)
(-0.0212308 0.0504656 0)
(-0.0255606 0.0519998 0)
(-0.0303304 0.0545649 0)
(-0.036025 0.0584866 0)
(-0.0433834 0.0641845 0)
(-0.0534515 0.0721428 0)
(-0.0676412 0.0823946 0)
(-0.0884341 0.0922394 0)
(-0.118121 0.0909071 0)
(-0.149548 0.0572763 0)
(-0.164185 -0.0244208 0)
(-0.162144 -0.141925 0)
(-0.154999 -0.249794 0)
(-0.130677 -0.308317 0)
(-0.034976 -0.210232 0)
(-0.00080422 0.0234398 0)
(-0.00384989 0.0442684 0)
(-0.00844957 0.0515057 0)
(-0.0128042 0.0532438 0)
(-0.0166267 0.0536345 0)
(-0.0200649 0.0543485 0)
(-0.0233255 0.056045 0)
(-0.0266686 0.059162 0)
(-0.0304516 0.0642198 0)
(-0.035194 0.0719442 0)
(-0.0415549 0.0831807 0)
(-0.0502051 0.0979024 0)
(-0.0625937 0.111901 0)
(-0.0809415 0.111753 0)
(-0.100277 0.0753355 0)
(-0.108632 -0.010412 0)
(-0.109898 -0.132343 0)
(-0.112966 -0.257093 0)
(-0.112304 -0.36017 0)
(-0.027571 -0.317457 0)
(-0.00104166 0.025785 0)
(-0.00447746 0.048585 0)
(-0.00927339 0.0559694 0)
(-0.0133901 0.057147 0)
(-0.0165724 0.0569312 0)
(-0.0190203 0.0572088 0)
(-0.0209163 0.0586898 0)
(-0.0224069 0.0618593 0)
(-0.0236251 0.0673244 0)
(-0.0247046 0.0759282 0)
(-0.0257188 0.0885846 0)
(-0.0265383 0.105089 0)
(-0.027527 0.120241 0)
(-0.0313266 0.120531 0)
(-0.0363872 0.0849332 0)
(-0.0391947 0.00258738 0)
(-0.0455796 -0.109881 0)
(-0.0580799 -0.23658 0)
(-0.0830352 -0.372461 0)
(-0.0105981 -0.384634 0)
(-0.0015444 0.0286651 0)
(-0.00576703 0.0531959 0)
(-0.0110159 0.0600572 0)
(-0.0148853 0.0602747 0)
(-0.0172523 0.0591886 0)
(-0.0185091 0.0587379 0)
(-0.0188494 0.0595958 0)
(-0.0182859 0.0622067 0)
(-0.0167031 0.067133 0)
(-0.0138514 0.0751274 0)
(-0.00926971 0.0868622 0)
(-0.00255128 0.102032 0)
(0.00699906 0.116365 0)
(0.0166827 0.117196 0)
(0.0235458 0.0855627 0)
(0.025925 0.010737 0)
(0.0134406 -0.0871832 0)
(-0.00447118 -0.203406 0)
(-0.0550274 -0.369053 0)
(0.00594718 -0.430898 0)
(-0.00257316 0.0326917 0)
(-0.00813257 0.0597121 0)
(-0.0139959 0.0657975 0)
(-0.0174786 0.0638439 0)
(-0.0188691 0.06094 0)
(-0.0188416 0.0591471 0)
(-0.0176128 0.0588392 0)
(-0.0150717 0.0602227 0)
(-0.0108955 0.0636663 0)
(-0.00463025 0.069667 0)
(0.00448387 0.0786261 0)
(0.0174705 0.0902523 0)
(0.0346321 0.101728 0)
(0.0531236 0.10296 0)
(0.0674794 0.079203 0)
(0.073927 0.0183738 0)
(0.0596199 -0.0635039 0)
(0.0402676 -0.168196 0)
(-0.0328356 -0.358364 0)
(0.0240708 -0.462369 0)
(-0.00440419 0.0418315 0)
(-0.0138894 0.0654279 0)
(-0.0206394 0.0659084 0)
(-0.0226079 0.0625486 0)
(-0.0220693 0.0592384 0)
(-0.0204048 0.0568842 0)
(-0.0176773 0.0556635 0)
(-0.0134715 0.0556602 0)
(-0.00726896 0.0571239 0)
(0.00154291 0.060269 0)
(0.0138883 0.0655715 0)
(0.0306284 0.0726411 0)
(0.0515637 0.0794981 0)
(0.0743477 0.0798719 0)
(0.0920733 0.0645316 0)
(0.101716 0.0220516 0)
(0.0871648 -0.0395157 0)
(0.0669112 -0.137785 0)
(-0.0128464 -0.344987 0)
(0.0480329 -0.476166 0)
(-0.00298709 0.0372602 0)
(-0.012357 0.0819931 0)
(-0.0244806 0.081802 0)
(-0.0284177 0.0710883 0)
(-0.0278442 0.0631712 0)
(-0.0251182 0.0579819 0)
(-0.0203634 0.0542895 0)
(-0.0135103 0.0516105 0)
(-0.00450765 0.050067 0)
(0.00714973 0.0496341 0)
(0.0218638 0.0507923 0)
(0.0402537 0.052913 0)
(0.061487 0.0555165 0)
(0.0851282 0.0543027 0)
(0.102651 0.0457698 0)
(0.116713 0.0194007 0)
(0.102714 -0.0240914 0)
(0.090351 -0.118998 0)
(0.0256126 -0.317616 0)
(0.088196 -0.450986 0)
(-0.0977388 0.0968993 0)
(-0.0744349 0.0762448 0)
(-0.0640203 0.0575294 0)
(-0.0415876 0.0496047 0)
(-0.0209428 0.0440229 0)
(-0.000630249 0.0394782 0)
(0.0187247 0.0357541 0)
(0.0385688 0.0326065 0)
(0.0570971 0.0304216 0)
(0.0776115 0.0287211 0)
(0.0960187 0.0281144 0)
(0.11903 0.0278006 0)
(0.136463 0.0284766 0)
(0.162894 0.028074 0)
(0.17213 0.0251226 0)
(0.198027 0.0128868 0)
(0.182088 -0.0171157 0)
(0.190813 -0.086783 0)
(0.139214 -0.228466 0)
(0.168441 -0.341078 0)
(0.135531 0.109731 0)
(0.171727 0.0872838 0)
(0.231767 0.0655843 0)
(0.287022 0.0514848 0)
(0.329485 0.0422988 0)
(0.366788 0.0354094 0)
(0.395286 0.0302769 0)
(0.425263 0.0258324 0)
(0.44609 0.0226831 0)
(0.47332 0.0195967 0)
(0.488353 0.0178517 0)
(0.51568 0.0155724 0)
(0.525341 0.0149978 0)
(0.553809 0.0130559 0)
(0.554606 0.0130831 0)
(0.578183 0.00906664 0)
(0.553222 0.00403689 0)
(0.544925 -0.0155089 0)
(0.440685 -0.0472203 0)
(0.339501 -0.0995626 0)
)
;

boundaryField
{
    movingWall
    {
        type            fixedValue;
        value           uniform (1 0 0);
    }
    fixedWalls
    {
        type            noSlip;
    }
    frontAndBack
    {
        type            empty;
    }
}


// ************************************************************************* //
