/*--------------------------------*- C++ -*----------------------------------*\
| =========                 |                                                 |
| \\      /  F ield         | OpenFOAM: The Open Source CFD Toolbox           |
|  \\    /   O peration     | Version:  2212                                  |
|   \\  /    A nd           | Website:  www.openfoam.com                      |
|    \\/     M anipulation  |                                                 |
\*---------------------------------------------------------------------------*/
FoamFile
{
    version     2.0;
    format      ascii;
    arch        "LSB;label=32;scalar=64";
    class       volVectorField;
    location    "2.16";
    object      U;
}
// * * * * * * * * * * * * * * * * * * * * * * * * * * * * * * * * * * * * * //

dimensions      [0 1 -1 0 0 0 0];

internalField   nonuniform List<vector> 
400
(
(0.00121526 -0.00127687 0)
(0.00333704 -0.00136641 0)
(0.00427501 -0.000914774 0)
(0.00320093 -0.000390867 0)
(-0.000494701 0.000322456 0)
(-0.00775709 0.00164541 0)
(-0.0194814 0.00399291 0)
(-0.0355988 0.00706953 0)
(-0.0540456 0.0093606 0)
(-0.0706308 0.00915189 0)
(-0.0810144 0.00623229 0)
(-0.0825423 0.00177424 0)
(-0.0741477 -0.00298956 0)
(-0.0563115 -0.00730466 0)
(-0.0324701 -0.00974304 0)
(-0.00673598 -0.0088898 0)
(0.0135357 -0.00457495 0)
(0.0210614 0.00222703 0)
(0.0143005 0.00564885 0)
(0.00392321 0.00418719 0)
(0.000941125 -0.00336407 0)
(0.00100951 -0.00224729 0)
(-0.00302703 0.00122426 0)
(-0.0126685 0.00586883 0)
(-0.0296489 0.0120631 0)
(-0.0546623 0.0199974 0)
(-0.0855259 0.0279807 0)
(-0.11686 0.0323585 0)
(-0.142959 0.0304047 0)
(-0.16011 0.0222167 0)
(-0.166491 0.00964084 0)
(-0.161741 -0.00506709 0)
(-0.146378 -0.0200615 0)
(-0.120945 -0.0330192 0)
(-0.0876639 -0.0404223 0)
(-0.0492564 -0.0383096 0)
(-0.0114359 -0.0246005 0)
(0.0145586 -0.00208657 0)
(0.0159844 0.0141533 0)
(0.00512618 0.0132753 0)
(-0.000854772 -0.00288185 0)
(-0.00629169 0.00308702 0)
(-0.0190654 0.0133784 0)
(-0.0402156 0.0267215 0)
(-0.070515 0.0419181 0)
(-0.107115 0.0555022 0)
(-0.144013 0.0627123 0)
(-0.175715 0.0606486 0)
(-0.199367 0.0495951 0)
(-0.213863 0.031517 0)
(-0.218872 0.00866038 0)
(-0.21478 -0.0168658 0)
(-0.201882 -0.0429115 0)
(-0.179794 -0.0660288 0)
(-0.148312 -0.0813393 0)
(-0.107586 -0.0822339 0)
(-0.0597361 -0.0624439 0)
(-0.0129139 -0.0223385 0)
(0.00876047 0.0152749 0)
(0.004077 0.0213534 0)
(-0.00320546 0.00332491 0)
(-0.0156362 0.0176617 0)
(-0.0381103 0.0363803 0)
(-0.0689497 0.0582227 0)
(-0.106768 0.0788773 0)
(-0.146284 0.0923596 0)
(-0.181471 0.0944046 0)
(-0.209282 0.0847088 0)
(-0.229232 0.0656068 0)
(-0.241512 0.0396388 0)
(-0.246653 0.00879914 0)
(-0.245373 -0.0254134 0)
(-0.237721 -0.0608539 0)
(-0.222728 -0.0945087 0)
(-0.198575 -0.12119 0)
(-0.162759 -0.132534 0)
(-0.113282 -0.117233 0)
(-0.0525134 -0.066761 0)
(-0.000973641 0.0016956 0)
(0.00460456 0.0257869 0)
(-0.00566955 0.0158231 0)
(-0.0243915 0.0405934 0)
(-0.0539616 0.0668916 0)
(-0.0897875 0.0943046 0)
(-0.128808 0.116116 0)
(-0.16513 0.125936 0)
(-0.194444 0.121498 0)
(-0.215893 0.104773 0)
(-0.230207 0.0791538 0)
(-0.238656 0.0474355 0)
(-0.242789 0.0113936 0)
(-0.243644 -0.0279921 0)
(-0.241231 -0.0694445 0)
(-0.234826 -0.111397 0)
(-0.221923 -0.150033 0)
(-0.198063 -0.177227 0)
(-0.157705 -0.178459 0)
(-0.0967857 -0.134229 0)
(-0.0203596 -0.0372151 0)
(0.00684996 0.0248979 0)
(-0.00706805 0.0325381 0)
(-0.0294683 0.0684086 0)
(-0.0620698 0.100161 0)
(-0.0978893 0.12987 0)
(-0.133247 0.149727 0)
(-0.162867 0.154143 0)
(-0.184325 0.142972 0)
(-0.198143 0.119901 0)
(-0.205841 0.0890842 0)
(-0.209581 0.0536722 0)
(-0.211484 0.0154754 0)
(-0.21278 -0.0248631 0)
(-0.213814 -0.067487 0)
(-0.21456 -0.112676 0)
(-0.212994 -0.159219 0)
(-0.204071 -0.201743 0)
(-0.179957 -0.226388 0)
(-0.132491 -0.206896 0)
(-0.0579326 -0.111432 0)
(0.00529083 0.0130311 0)
(-0.00685016 0.0509112 0)
(-0.0295614 0.0972819 0)
(-0.0611708 0.13211 0)
(-0.0932766 0.161419 0)
(-0.122384 0.177425 0)
(-0.144322 0.175726 0)
(-0.158235 0.158033 0)
(-0.165485 0.129357 0)
(-0.168117 0.0945236 0)
(-0.168585 0.0569406 0)
(-0.168775 0.01832 0)
(-0.169633 -0.0209966 0)
(-0.171772 -0.0618964 0)
(-0.175828 -0.105779 0)
(-0.181132 -0.153815 0)
(-0.183953 -0.204894 0)
(-0.1763 -0.249933 0)
(-0.148274 -0.262952 0)
(-0.093773 -0.195398 0)
(-0.00785724 -0.0142128 0)
(-0.00508467 0.0680293 0)
(-0.0249872 0.123983 0)
(-0.0525321 0.160158 0)
(-0.0788631 0.187383 0)
(-0.101033 0.198718 0)
(-0.116094 0.190958 0)
(-0.124293 0.167385 0)
(-0.12743 0.134083 0)
(-0.127751 0.0963658 0)
(-0.127446 0.0575904 0)
(-0.127627 0.0190613 0)
(-0.128586 -0.0192703 0)
(-0.130768 -0.0582906 0)
(-0.135071 -0.099365 0)
(-0.142155 -0.1447 0)
(-0.150637 -0.196924 0)
(-0.154237 -0.253933 0)
(-0.14246 -0.295726 0)
(-0.108081 -0.265328 0)
(-0.0287313 -0.0703674 0)
(-0.00228589 0.0813004 0)
(-0.017143 0.145964 0)
(-0.038708 0.182567 0)
(-0.0584472 0.206912 0)
(-0.0740368 0.213676 0)
(-0.0836334 0.200779 0)
(-0.0881289 0.172659 0)
(-0.0893756 0.136136 0)
(-0.089433 0.0967817 0)
(-0.0898659 0.0576739 0)
(-0.0909929 0.019537 0)
(-0.092637 -0.0181436 0)
(-0.0949327 -0.0560778 0)
(-0.0985604 -0.0949797 0)
(-0.10485 -0.136733 0)
(-0.114647 -0.18588 0)
(-0.124484 -0.247104 0)
(-0.123649 -0.310765 0)
(-0.104589 -0.321604 0)
(-0.0359777 -0.153612 0)
(0.000937106 0.0888448 0)
(-0.00750572 0.161623 0)
(-0.0220033 0.198744 0)
(-0.0350158 0.220491 0)
(-0.044677 0.223637 0)
(-0.0500686 0.207015 0)
(-0.052287 0.17585 0)
(-0.0528823 0.137458 0)
(-0.0534337 0.0975036 0)
(-0.0548612 0.0586611 0)
(-0.0570296 0.021044 0)
(-0.0595999 -0.0162324 0)
(-0.0625099 -0.0537373 0)
(-0.0660507 -0.0915622 0)
(-0.0713818 -0.130522 0)
(-0.0803995 -0.175067 0)
(-0.0930733 -0.234492 0)
(-0.0991192 -0.311295 0)
(-0.0935522 -0.359154 0)
(-0.0304741 -0.231533 0)
(0.00404416 0.0897525 0)
(0.00244313 0.169913 0)
(-0.00464393 0.208269 0)
(-0.0111011 0.228004 0)
(-0.0154085 0.228591 0)
(-0.0172426 0.209828 0)
(-0.0176926 0.177329 0)
(-0.0178425 0.138505 0)
(-0.018684 0.0988431 0)
(-0.0206566 0.0606509 0)
(-0.0234645 0.0236949 0)
(-0.026829 -0.013059 0)
(-0.0307388 -0.0501935 0)
(-0.0351871 -0.0875328 0)
(-0.0408361 -0.124903 0)
(-0.0493213 -0.165434 0)
(-0.0636212 -0.220423 0)
(-0.07376 -0.30416 0)
(-0.0804458 -0.38316 0)
(-0.0228448 -0.29518 0)
(0.00653512 0.0844428 0)
(0.011693 0.170667 0)
(0.0119329 0.211378 0)
(0.0118047 0.230352 0)
(0.0126561 0.229815 0)
(0.0143444 0.210455 0)
(0.0158566 0.177982 0)
(0.0165366 0.139657 0)
(0.0159374 0.100721 0)
(0.0139778 0.0633071 0)
(0.0109728 0.0271694 0)
(0.00703341 -0.00871947 0)
(0.00201841 -0.0450231 0)
(-0.00396057 -0.0815341 0)
(-0.0112436 -0.117731 0)
(-0.0203648 -0.155057 0)
(-0.0367567 -0.204426 0)
(-0.0494986 -0.290038 0)
(-0.0680568 -0.395221 0)
(-0.0147112 -0.348 0)
(0.00775044 0.0740838 0)
(0.0189436 0.164049 0)
(0.0260918 0.207611 0)
(0.0318811 0.226566 0)
(0.0377596 0.225892 0)
(0.0434123 0.207297 0)
(0.0477604 0.176227 0)
(0.0502642 0.139462 0)
(0.0507777 0.101944 0)
(0.0494587 0.0657742 0)
(0.0466606 0.0308847 0)
(0.0422631 -0.00370377 0)
(0.0362481 -0.0384913 0)
(0.0285431 -0.0735027 0)
(0.0185898 -0.108201 0)
(0.00730156 -0.142941 0)
(-0.0123139 -0.18725 0)
(-0.0261911 -0.271347 0)
(-0.0567436 -0.397845 0)
(-0.00661486 -0.390243 0)
(0.00723687 0.0606434 0)
(0.0229921 0.150722 0)
(0.0367096 0.197626 0)
(0.0484725 0.217831 0)
(0.0596499 0.218183 0)
(0.0699209 0.201514 0)
(0.0780958 0.172909 0)
(0.0835092 0.138491 0)
(0.086064 0.102889 0)
(0.0860045 0.0683065 0)
(0.0836732 0.0350278 0)
(0.0790728 0.00233353 0)
(0.0720315 -0.0301666 0)
(0.0624891 -0.0628896 0)
(0.049561 -0.095377 0)
(0.0348309 -0.127462 0)
(0.0106439 -0.166881 0)
(-0.00310983 -0.248038 0)
(-0.0464482 -0.394196 0)
(0.00201523 -0.425681 0)
(0.00501169 0.0470028 0)
(0.0225913 0.132811 0)
(0.0413835 0.181055 0)
(0.0586767 0.201736 0)
(0.0754817 0.20313 0)
(0.0913167 0.189034 0)
(0.10466 0.164004 0)
(0.114469 0.133246 0)
(0.120432 0.100881 0)
(0.122716 0.0691035 0)
(0.121577 0.0385505 0)
(0.117223 0.00883072 0)
(0.10907 -0.0204334 0)
(0.0976985 -0.0497316 0)
(0.0812982 -0.0788817 0)
(0.0626215 -0.108371 0)
(0.0333677 -0.1439 0)
(0.0197828 -0.222211 0)
(-0.0367479 -0.387397 0)
(0.0123294 -0.455575 0)
(0.00160065 0.0357681 0)
(0.017509 0.112897 0)
(0.0401423 0.161067 0)
(0.0629639 0.182168 0)
(0.085899 0.184534 0)
(0.107975 0.173012 0)
(0.127393 0.151923 0)
(0.14264 0.125528 0)
(0.153029 0.0973007 0)
(0.158613 0.0692671 0)
(0.159305 0.0422926 0)
(0.155808 0.0163212 0)
(0.146814 -0.00894362 0)
(0.133792 -0.0338081 0)
(0.113696 -0.0585114 0)
(0.0911683 -0.0845396 0)
(0.0568161 -0.117304 0)
(0.0420131 -0.194282 0)
(-0.0258555 -0.378211 0)
(0.0268471 -0.479028 0)
(-0.00304653 0.0324376 0)
(0.00541301 0.0958004 0)
(0.0268497 0.134045 0)
(0.0546448 0.151837 0)
(0.0845688 0.154442 0)
(0.114217 0.14583 0)
(0.141062 0.12956 0)
(0.163199 0.108843 0)
(0.179391 0.0864497 0)
(0.18966 0.0640387 0)
(0.193312 0.0425868 0)
(0.191643 0.0221523 0)
(0.182619 0.00267409 0)
(0.169094 -0.0163669 0)
(0.146114 -0.0352259 0)
(0.121271 -0.0569943 0)
(0.0824593 -0.0889242 0)
(0.0640302 -0.168661 0)
(-0.00795273 -0.363993 0)
(0.0503576 -0.487691 0)
(-0.011117 0.022564 0)
(-0.00811251 0.0875407 0)
(0.0115462 0.116288 0)
(0.0431167 0.125476 0)
(0.0792672 0.124571 0)
(0.115703 0.117179 0)
(0.149292 0.105213 0)
(0.177527 0.0901471 0)
(0.198931 0.0740519 0)
(0.213911 0.0578276 0)
(0.220773 0.0426503 0)
(0.222451 0.0283402 0)
(0.214959 0.0154901 0)
(0.204481 0.0028823 0)
(0.182333 -0.00961552 0)
(0.16138 -0.0273444 0)
(0.120955 -0.0590847 0)
(0.100483 -0.139756 0)
(0.0337875 -0.324413 0)
(0.0909579 -0.454569 0)
(-0.104217 0.0852883 0)
(-0.0770482 0.0703554 0)
(-0.0512765 0.0696431 0)
(-0.00394712 0.0714383 0)
(0.0441492 0.0709095 0)
(0.0920848 0.0672659 0)
(0.135693 0.061315 0)
(0.17548 0.0534596 0)
(0.206518 0.045303 0)
(0.234145 0.0368964 0)
(0.250615 0.0294055 0)
(0.266547 0.0222966 0)
(0.268911 0.0164774 0)
(0.274719 0.0107333 0)
(0.261901 0.00468057 0)
(0.257234 -0.00627773 0)
(0.221224 -0.031772 0)
(0.211851 -0.0931303 0)
(0.148072 -0.229314 0)
(0.170191 -0.341327 0)
(0.13116 0.104913 0)
(0.160931 0.0777596 0)
(0.215957 0.0557867 0)
(0.273666 0.0434184 0)
(0.32395 0.0368714 0)
(0.373133 0.0323267 0)
(0.414669 0.0290489 0)
(0.457289 0.0256538 0)
(0.488717 0.0230728 0)
(0.522904 0.019975 0)
(0.54223 0.0179742 0)
(0.568306 0.0151254 0)
(0.575449 0.0138484 0)
(0.594947 0.0111018 0)
(0.588227 0.0102772 0)
(0.598523 0.00581051 0)
(0.564921 0.000906449 0)
(0.547061 -0.0176349 0)
(0.436851 -0.0500626 0)
(0.337531 -0.101266 0)
)
;

boundaryField
{
    movingWall
    {
        type            fixedValue;
        value           uniform (1 0 0);
    }
    fixedWalls
    {
        type            noSlip;
    }
    frontAndBack
    {
        type            empty;
    }
}


// ************************************************************************* //
