/*--------------------------------*- C++ -*----------------------------------*\
| =========                 |                                                 |
| \\      /  F ield         | OpenFOAM: The Open Source CFD Toolbox           |
|  \\    /   O peration     | Version:  2212                                  |
|   \\  /    A nd           | Website:  www.openfoam.com                      |
|    \\/     M anipulation  |                                                 |
\*---------------------------------------------------------------------------*/
FoamFile
{
    version     2.0;
    format      ascii;
    arch        "LSB;label=32;scalar=64";
    class       volScalarField;
    location    "1.125";
    object      p;
}
// * * * * * * * * * * * * * * * * * * * * * * * * * * * * * * * * * * * * * //

dimensions      [0 2 -2 0 0 0 0];

internalField   nonuniform List<scalar> 
400
(
2.23009e-09
-0.000102795
-0.000208443
-0.000338735
-0.000490802
-0.000641093
-0.000743285
-0.000728701
-0.000513857
-2.16462e-05
0.000784752
0.00187105
0.00310447
0.00416555
0.00475157
0.00472816
0.0041169
0.00341381
0.00291547
0.00281178
0.00012375
1.50436e-05
-7.05166e-05
-0.000178851
-0.000314947
-0.000459675
-0.000579104
-0.000620983
-0.000509029
-0.000152084
0.000518473
0.00150218
0.00266719
0.00372917
0.00435836
0.00437187
0.00385661
0.00316123
0.00272901
0.00267008
0.00019423
6.37985e-05
-2.05347e-05
-0.000140207
-0.000315994
-0.000542686
-0.000803505
-0.00105619
-0.00121018
-0.00112241
-0.00064886
0.000255527
0.00146598
0.0026995
0.0035845
0.00384348
0.00348095
0.00282899
0.00225991
0.00214277
0.000133112
-2.17005e-05
-0.000122639
-0.000288044
-0.000560329
-0.00096163
-0.00151078
-0.00219319
-0.00291039
-0.00344382
-0.00349758
-0.00288771
-0.00172979
-0.000225741
0.0012667
0.00231179
0.00263314
0.00230738
0.00165734
0.00124992
-0.000168807
-0.000347386
-0.000487042
-0.000739047
-0.00117516
-0.00186832
-0.00291376
-0.00436581
-0.006118
-0.00780003
-0.00884039
-0.00882303
-0.00794344
-0.00620259
-0.00388505
-0.00149494
0.000360365
0.00120664
0.00103057
-0.000122449
-0.000786706
-0.000991643
-0.00119805
-0.00158583
-0.0022689
-0.00340437
-0.00521091
-0.00781957
-0.0110293
-0.0141997
-0.0165285
-0.0175092
-0.0169471
-0.0149958
-0.0118993
-0.00806609
-0.00416583
-0.001202
-0.000198809
-0.00197154
-0.00174481
-0.00198047
-0.00228436
-0.00286028
-0.00387497
-0.00558933
-0.00835032
-0.0123099
-0.0170722
-0.0216544
-0.025048
-0.0267327
-0.0264693
-0.0244618
-0.0209866
-0.01627
-0.0106862
-0.00537627
-0.00257961
-0.00369322
-0.00300734
-0.00327517
-0.00369934
-0.00449796
-0.00588586
-0.00821378
-0.0119095
-0.0170679
-0.0230694
-0.0286244
-0.0325835
-0.0344867
-0.034279
-0.0322495
-0.0287518
-0.0239318
-0.0177769
-0.0109146
-0.00579095
-0.00412872
-0.00448049
-0.00477309
-0.00531803
-0.00633252
-0.00805646
-0.01089
-0.0152817
-0.0212449
-0.0280128
-0.0341077
-0.0383127
-0.0402337
-0.0399605
-0.0378392
-0.0343492
-0.0297606
-0.0239019
-0.0166775
-0.00961403
-0.00503491
-0.00603402
-0.00633034
-0.00696654
-0.00814067
-0.0100866
-0.0132097
-0.0179419
-0.0242484
-0.0313417
-0.0376837
-0.042025
-0.04397
-0.0436197
-0.041353
-0.0377736
-0.0333972
-0.0281643
-0.021526
-0.0140403
-0.00765269
-0.00753832
-0.00780117
-0.00847396
-0.00971034
-0.0117158
-0.0148684
-0.0195712
-0.025789
-0.0328119
-0.0391486
-0.0435478
-0.045538
-0.0451545
-0.0427621
-0.0390558
-0.0348193
-0.0302614
-0.0246406
-0.017956
-0.0111231
-0.00887634
-0.00907904
-0.00971089
-0.0108847
-0.0127767
-0.0157186
-0.0200705
-0.0258241
-0.0323667
-0.0384029
-0.0427298
-0.0447541
-0.0444121
-0.0420145
-0.0382645
-0.0341791
-0.0302829
-0.0257184
-0.0201863
-0.0135648
-0.00999308
-0.0101074
-0.0106111
-0.0115968
-0.0132261
-0.015766
-0.0195053
-0.0244778
-0.0302118
-0.0356624
-0.0397248
-0.0417205
-0.0414855
-0.0392722
-0.0357587
-0.0319083
-0.0285797
-0.0248493
-0.0203663
-0.0139743
-0.0108767
-0.0108847
-0.0111746
-0.011856
-0.013099
-0.0151164
-0.0181206
-0.0221608
-0.0269135
-0.0315837
-0.0352187
-0.0371249
-0.0370728
-0.0352021
-0.0320949
-0.0286359
-0.0257077
-0.0225179
-0.0189975
-0.0123528
-0.0115568
-0.0114503
-0.0114516
-0.0117364
-0.012525
-0.013998
-0.0163005
-0.0194646
-0.0232697
-0.0271339
-0.0302786
-0.0320469
-0.0321773
-0.0307139
-0.0280901
-0.0250576
-0.0224464
-0.0195029
-0.0172304
-0.0090654
-0.0121104
-0.0118678
-0.0114525
-0.0112593
-0.0115916
-0.0125941
-0.0143475
-0.0168471
-0.0199186
-0.0231301
-0.0258675
-0.0275423
-0.0278337
-0.0267194
-0.0245374
-0.0218583
-0.019414
-0.0165039
-0.0155002
-0.00311925
-0.0125781
-0.0122386
-0.0113041
-0.0105828
-0.0104884
-0.0111253
-0.0125118
-0.0145942
-0.0172075
-0.0200039
-0.0224934
-0.0241493
-0.0246304
-0.0238181
-0.0219603
-0.0194224
-0.0168237
-0.0135567
-0.0110762
0.0107998
-0.0139838
-0.0127065
-0.0107198
-0.00948631
-0.00911409
-0.00957345
-0.0108068
-0.0127177
-0.0151472
-0.0177819
-0.0202193
-0.0219641
-0.0226902
-0.0221671
-0.0205041
-0.0177193
-0.0141552
-0.00793164
0.0043609
0.045456
-0.0126131
-0.0138049
-0.0108065
-0.00881206
-0.00808722
-0.00841031
-0.00958676
-0.011454
-0.013873
-0.0165161
-0.0190509
-0.0209568
-0.021944
-0.0215972
-0.0198547
-0.0159444
-0.00857074
0.00787189
0.0436117
0.1142
-0.030129
-0.0139087
-0.0074815
-0.00570743
-0.00553299
-0.00615624
-0.00753133
-0.0095665
-0.0121475
-0.0149278
-0.0176077
-0.0196998
-0.0209241
-0.0207261
-0.018435
-0.011832
0.0034957
0.0382189
0.106385
0.210613
)
;

boundaryField
{
    movingWall
    {
        type            zeroGradient;
    }
    fixedWalls
    {
        type            zeroGradient;
    }
    frontAndBack
    {
        type            empty;
    }
}


// ************************************************************************* //
