/*--------------------------------*- C++ -*----------------------------------*\
| =========                 |                                                 |
| \\      /  F ield         | OpenFOAM: The Open Source CFD Toolbox           |
|  \\    /   O peration     | Version:  2212                                  |
|   \\  /    A nd           | Website:  www.openfoam.com                      |
|    \\/     M anipulation  |                                                 |
\*---------------------------------------------------------------------------*/
FoamFile
{
    version     2.0;
    format      ascii;
    arch        "LSB;label=32;scalar=64";
    class       volVectorField;
    location    "4.105";
    object      U;
}
// * * * * * * * * * * * * * * * * * * * * * * * * * * * * * * * * * * * * * //

dimensions      [0 1 -1 0 0 0 0];

internalField   nonuniform List<vector> 
400
(
(0.00165722 -0.0016633 0)
(0.00475999 -0.00186631 0)
(0.00646915 -0.0011861 0)
(0.00554098 -0.000565291 0)
(0.00145331 0.000192826 0)
(-0.00689115 0.00173705 0)
(-0.020557 0.00474489 0)
(-0.0393269 0.00864537 0)
(-0.0604339 0.0111911 0)
(-0.0786731 0.0104515 0)
(-0.0893619 0.00676753 0)
(-0.0901078 0.001704 0)
(-0.0800355 -0.00354972 0)
(-0.0599925 -0.00819624 0)
(-0.0337021 -0.0107772 0)
(-0.00560639 -0.00975792 0)
(0.0163639 -0.00480871 0)
(0.0241799 0.00271201 0)
(0.0160462 0.00640694 0)
(0.0042937 0.00468288 0)
(0.00167606 -0.00497449 0)
(0.00304067 -0.00393544 0)
(-0.000573981 0.000627423 0)
(-0.0114351 0.006422 0)
(-0.0313741 0.013955 0)
(-0.0608358 0.0235712 0)
(-0.096242 0.0327692 0)
(-0.130636 0.0368077 0)
(-0.158036 0.0333275 0)
(-0.175154 0.0233417 0)
(-0.180569 0.00917648 0)
(-0.17432 -0.00681903 0)
(-0.15698 -0.0229227 0)
(-0.129274 -0.0366317 0)
(-0.0934538 -0.0443099 0)
(-0.0522472 -0.0416791 0)
(-0.0116085 -0.026342 0)
(0.0166111 -0.00143939 0)
(0.0177069 0.0160362 0)
(0.00551224 0.0147084 0)
(-0.000280142 -0.00561084 0)
(-0.00545425 0.000945482 0)
(-0.0196253 0.0142754 0)
(-0.0443293 0.0310167 0)
(-0.0798491 0.0490369 0)
(-0.121369 0.0637943 0)
(-0.161247 0.0700278 0)
(-0.193996 0.065626 0)
(-0.217495 0.0519609 0)
(-0.231144 0.0314995 0)
(-0.234948 0.00657692 0)
(-0.229559 -0.0207766 0)
(-0.215288 -0.0484001 0)
(-0.19163 -0.0726882 0)
(-0.158314 -0.0885156 0)
(-0.115306 -0.0888564 0)
(-0.0644057 -0.0669018 0)
(-0.0139229 -0.0228588 0)
(0.00938368 0.0176272 0)
(0.00415123 0.0234022 0)
(-0.00346844 0.000644611 0)
(-0.0174442 0.0173056 0)
(-0.0432659 0.0412556 0)
(-0.0791199 0.0676506 0)
(-0.122025 0.0904197 0)
(-0.164606 0.103067 0)
(-0.200464 0.102224 0)
(-0.227642 0.0891752 0)
(-0.246394 0.0670525 0)
(-0.257319 0.0385529 0)
(-0.261254 0.00554776 0)
(-0.259 -0.030638 0)
(-0.250493 -0.0677788 0)
(-0.234686 -0.102944 0)
(-0.209587 -0.130678 0)
(-0.172495 -0.142197 0)
(-0.120864 -0.125342 0)
(-0.0566705 -0.0708343 0)
(-0.00105808 0.00325531 0)
(0.00473713 0.0280206 0)
(-0.00661474 0.0148875 0)
(-0.0285053 0.0439631 0)
(-0.0627738 0.076539 0)
(-0.10358 0.108041 0)
(-0.146054 0.130186 0)
(-0.183109 0.137216 0)
(-0.211283 0.128686 0)
(-0.230941 0.108148 0)
(-0.24337 0.0794562 0)
(-0.250295 0.045395 0)
(-0.253411 0.00749873 0)
(-0.253651 -0.0334361 0)
(-0.250795 -0.0762688 0)
(-0.244276 -0.119693 0)
(-0.231282 -0.159757 0)
(-0.20719 -0.188023 0)
(-0.165968 -0.18918 0)
(-0.102956 -0.142466 0)
(-0.0221572 -0.0390089 0)
(0.00732428 0.0268486 0)
(-0.00842589 0.0347851 0)
(-0.0348379 0.0762027 0)
(-0.0724043 0.114071 0)
(-0.112217 0.146519 0)
(-0.149193 0.164775 0)
(-0.177869 0.164816 0)
(-0.197251 0.148801 0)
(-0.208864 0.12178 0)
(-0.21469 0.0881014 0)
(-0.217218 0.0507541 0)
(-0.218442 0.011204 0)
(-0.219382 -0.0301464 0)
(-0.220244 -0.0737907 0)
(-0.221107 -0.120135 0)
(-0.219762 -0.167977 0)
(-0.211095 -0.211828 0)
(-0.187016 -0.237486 0)
(-0.138957 -0.217705 0)
(-0.0624952 -0.118596 0)
(0.00575191 0.0140191 0)
(-0.00819343 0.0566781 0)
(-0.0349546 0.109268 0)
(-0.0710929 0.149312 0)
(-0.106014 0.179744 0)
(-0.135418 0.19242 0)
(-0.155669 0.185168 0)
(-0.167427 0.162209 0)
(-0.172791 0.129665 0)
(-0.174172 0.0923164 0)
(-0.174097 0.0531946 0)
(-0.174115 0.0135413 0)
(-0.174927 -0.0266161 0)
(-0.177089 -0.0684578 0)
(-0.18113 -0.113316 0)
(-0.186373 -0.162334 0)
(-0.189141 -0.214357 0)
(-0.181506 -0.260356 0)
(-0.153477 -0.274064 0)
(-0.0988055 -0.205134 0)
(-0.00887382 -0.0147276 0)
(-0.00604925 0.0770273 0)
(-0.0294322 0.139526 0)
(-0.0607406 0.17978 0)
(-0.0889421 0.206675 0)
(-0.110763 0.213289 0)
(-0.124155 0.199123 0)
(-0.130671 0.170087 0)
(-0.132603 0.133148 0)
(-0.132421 0.0933317 0)
(-0.132107 0.0533812 0)
(-0.132385 0.0140279 0)
(-0.133458 -0.0251261 0)
(-0.135795 -0.0651588 0)
(-0.140089 -0.107365 0)
(-0.146933 -0.153783 0)
(-0.154963 -0.206786 0)
(-0.158131 -0.264353 0)
(-0.146046 -0.306812 0)
(-0.111694 -0.276137 0)
(-0.030746 -0.075036 0)
(-0.0026776 0.0928274 0)
(-0.0201405 0.164357 0)
(-0.0446049 0.203945 0)
(-0.0655851 0.226752 0)
(-0.0807009 0.227764 0)
(-0.0890578 0.207937 0)
(-0.0925127 0.174354 0)
(-0.0932003 0.13451 0)
(-0.0932379 0.0934573 0)
(-0.0938332 0.053473 0)
(-0.0950598 0.0146572 0)
(-0.0968302 -0.023811 0)
(-0.0993274 -0.0627746 0)
(-0.103064 -0.103003 0)
(-0.10919 -0.146205 0)
(-0.118414 -0.196388 0)
(-0.127509 -0.257953 0)
(-0.125969 -0.321945 0)
(-0.107037 -0.333411 0)
(-0.037147 -0.162516 0)
(0.0012213 0.101819 0)
(-0.00878993 0.181993 0)
(-0.025297 0.221324 0)
(-0.0391417 0.240779 0)
(-0.0485076 0.237601 0)
(-0.0532706 0.213773 0)
(-0.0550898 0.177159 0)
(-0.0556185 0.135633 0)
(-0.0563954 0.0941774 0)
(-0.0579938 0.0545437 0)
(-0.0601949 0.0162693 0)
(-0.06285 -0.0217495 0)
(-0.0659593 -0.0602265 0)
(-0.0697173 -0.0994671 0)
(-0.0750724 -0.140265 0)
(-0.0836129 -0.186384 0)
(-0.0953897 -0.246196 0)
(-0.10029 -0.322653 0)
(-0.0948956 -0.370782 0)
(-0.0308239 -0.241393 0)
(0.00505845 0.10293 0)
(0.00295839 0.191463 0)
(-0.00528085 0.2317 0)
(-0.0123071 0.248703 0)
(-0.0166286 0.242672 0)
(-0.0184455 0.216591 0)
(-0.0190399 0.178657 0)
(-0.0194595 0.136743 0)
(-0.0206611 0.0955922 0)
(-0.0228299 0.0565712 0)
(-0.0256706 0.0189394 0)
(-0.0291105 -0.0185019 0)
(-0.0331694 -0.0565045 0)
(-0.0378077 -0.0952144 0)
(-0.0435884 -0.134652 0)
(-0.0517908 -0.177363 0)
(-0.0653086 -0.233195 0)
(-0.0740621 -0.316254 0)
(-0.0810689 -0.395193 0)
(-0.0229008 -0.305801 0)
(0.00832625 0.0965137 0)
(0.0140522 0.192413 0)
(0.0139522 0.235173 0)
(0.0135745 0.251432 0)
(0.014209 0.244393 0)
(0.0154221 0.217811 0)
(0.0163062 0.179887 0)
(0.016385 0.13834 0)
(0.0152551 0.0977107 0)
(0.0129682 0.0593019 0)
(0.00980322 0.0224023 0)
(0.00573324 -0.0141812 0)
(0.000610887 -0.0513167 0)
(-0.00544155 -0.0891915 0)
(-0.0128294 -0.12751 0)
(-0.0217733 -0.167408 0)
(-0.0375693 -0.218059 0)
(-0.0488066 -0.302536 0)
(-0.067929 -0.406973 0)
(-0.0144748 -0.358668 0)
(0.0101367 0.0837183 0)
(0.0230808 0.184885 0)
(0.0306712 0.231322 0)
(0.0365451 0.247987 0)
(0.0421571 0.241175 0)
(0.0470682 0.215516 0)
(0.0504608 0.178897 0)
(0.0520813 0.138678 0)
(0.051879 0.099226 0)
(0.0500734 0.0619067 0)
(0.0469219 0.0261946 0)
(0.0423429 -0.00903761 0)
(0.0361574 -0.0447389 0)
(0.0284612 -0.0811693 0)
(0.0184853 -0.118014 0)
(0.00729895 -0.155596 0)
(-0.0120119 -0.201705 0)
(-0.0245467 -0.284495 0)
(-0.0559994 -0.409539 0)
(-0.00619163 -0.400603 0)
(0.00967155 0.0667597 0)
(0.0285589 0.16927 0)
(0.0437149 0.220357 0)
(0.0561225 0.239245 0)
(0.0672971 0.234316 0)
(0.0768753 0.21107 0)
(0.0839866 0.176935 0)
(0.0883209 0.1388 0)
(0.0899563 0.100947 0)
(0.0892125 0.0649652 0)
(0.0864304 0.0307025 0)
(0.0814125 -0.00287304 0)
(0.0739986 -0.0364178 0)
(0.0644553 -0.0705606 0)
(0.0514528 -0.105139 0)
(0.0367615 -0.140104 0)
(0.0125715 -0.181641 0)
(-0.000431574 -0.261329 0)
(-0.0450628 -0.40537 0)
(0.00267399 -0.435161 0)
(0.00677806 0.0492567 0)
(0.0288347 0.147862 0)
(0.0503082 0.201984 0)
(0.0689741 0.222644 0)
(0.0862652 0.219755 0)
(0.101788 0.199705 0)
(0.11429 0.169282 0)
(0.123081 0.134616 0)
(0.12808 0.0997203 0)
(0.129556 0.0663065 0)
(0.12779 0.0346097 0)
(0.122868 0.00380484 0)
(0.114306 -0.0265011 0)
(0.102743 -0.0571819 0)
(0.0859595 -0.088322 0)
(0.0670839 -0.120576 0)
(0.0373919 -0.158476 0)
(0.0232381 -0.235397 0)
(-0.0347784 -0.397793 0)
(0.0133355 -0.463581 0)
(0.00232835 0.0347604 0)
(0.0231771 0.123199 0)
(0.0501085 0.178627 0)
(0.0755323 0.201307 0)
(0.0999296 0.200915 0)
(0.122565 0.184588 0)
(0.141783 0.158688 0)
(0.156369 0.128474 0)
(0.165908 0.0975601 0)
(0.170631 0.0676547 0)
(0.170502 0.0393414 0)
(0.16625 0.0121943 0)
(0.15651 -0.0141633 0)
(0.142959 -0.0404885 0)
(0.121996 -0.0671176 0)
(0.0988242 -0.09562 0)
(0.0634201 -0.130715 0)
(0.0463206 -0.206042 0)
(-0.0231103 -0.38628 0)
(0.0283335 -0.485005 0)
(-0.00338908 0.0289524 0)
(0.00974097 0.101218 0)
(0.036348 0.147745 0)
(0.0678421 0.16816 0)
(0.100397 0.169267 0)
(0.131797 0.157022 0)
(0.159495 0.136723 0)
(0.181762 0.11252 0)
(0.197574 0.0874834 0)
(0.207295 0.063143 0)
(0.210112 0.0402437 0)
(0.2078 0.0186368 0)
(0.19765 -0.00204351 0)
(0.183209 -0.0223257 0)
(0.158752 -0.0427 0)
(0.132556 -0.0662759 0)
(0.091568 -0.100178 0)
(0.0691926 -0.178873 0)
(-0.00475481 -0.369548 0)
(0.051969 -0.491365 0)
(-0.0137834 0.0188495 0)
(-0.00749617 0.0882267 0)
(0.0187495 0.12373 0)
(0.0555358 0.136506 0)
(0.0962401 0.135933 0)
(0.136195 0.126734 0)
(0.17206 0.112154 0)
(0.201552 0.0945127 0)
(0.223177 0.0762284 0)
(0.238037 0.0582971 0)
(0.243978 0.041686 0)
(0.244855 0.0262512 0)
(0.235672 0.0121739 0)
(0.22404 -0.00140139 0)
(0.199442 -0.0152394 0)
(0.175954 -0.0340828 0)
(0.132179 -0.0668525 0)
(0.107128 -0.145442 0)
(0.0371485 -0.326042 0)
(0.0922375 -0.455835 0)
(-0.10586 0.0826523 0)
(-0.0776271 0.0691771 0)
(-0.0486328 0.0731947 0)
(0.00336611 0.0774925 0)
(0.0564607 0.0777043 0)
(0.108767 0.0734086 0)
(0.155547 0.0661127 0)
(0.197546 0.0567875 0)
(0.229401 0.0472299 0)
(0.257345 0.0377017 0)
(0.273009 0.0291864 0)
(0.288156 0.0213365 0)
(0.288662 0.0147196 0)
(0.292978 0.00843442 0)
(0.277072 0.00156637 0)
(0.270252 -0.00957287 0)
(0.231353 -0.0351789 0)
(0.217699 -0.0952422 0)
(0.150119 -0.229718 0)
(0.170655 -0.341492 0)
(0.130058 0.103808 0)
(0.158511 0.0754019 0)
(0.212468 0.0534222 0)
(0.270959 0.0417736 0)
(0.323396 0.0360077 0)
(0.375606 0.0319951 0)
(0.419948 0.0289369 0)
(0.465008 0.0255904 0)
(0.497899 0.0229182 0)
(0.532994 0.0197368 0)
(0.552359 0.0175935 0)
(0.578167 0.0146725 0)
(0.584382 0.0132496 0)
(0.602865 0.010446 0)
(0.594493 0.00949671 0)
(0.603229 0.00510153 0)
(0.567658 0.000173235 0)
(0.547721 -0.018264 0)
(0.435922 -0.0504094 0)
(0.336866 -0.101405 0)
)
;

boundaryField
{
    movingWall
    {
        type            fixedValue;
        value           uniform (1 0 0);
    }
    fixedWalls
    {
        type            noSlip;
    }
    frontAndBack
    {
        type            empty;
    }
}


// ************************************************************************* //
