/*--------------------------------*- C++ -*----------------------------------*\
| =========                 |                                                 |
| \\      /  F ield         | OpenFOAM: The Open Source CFD Toolbox           |
|  \\    /   O peration     | Version:  2212                                  |
|   \\  /    A nd           | Website:  www.openfoam.com                      |
|    \\/     M anipulation  |                                                 |
\*---------------------------------------------------------------------------*/
FoamFile
{
    version     2.0;
    format      ascii;
    arch        "LSB;label=32;scalar=64";
    class       volScalarField;
    location    "1.54";
    object      p;
}
// * * * * * * * * * * * * * * * * * * * * * * * * * * * * * * * * * * * * * //

dimensions      [0 2 -2 0 0 0 0];

internalField   nonuniform List<scalar> 
400
(
2.80845e-06
-0.0058252
-0.0129633
-0.0184158
-0.0204335
-0.0182399
-0.0117754
-0.00148512
0.011836
0.0271479
0.0432433
0.058822
0.0725777
0.0833076
0.090052
0.0922662
0.0900251
0.0842431
0.0768798
0.0710662
0.00578085
-0.000218484
-0.00580451
-0.00954336
-0.0106
-0.00843395
-0.00297129
0.00547275
0.0163016
0.0287105
0.0417487
0.0543849
0.0655855
0.074409
0.0801194
0.0823149
0.0810764
0.0770539
0.0712731
0.0653168
0.013335
0.00503328
-0.000995898
-0.00442388
-0.00527387
-0.00326507
0.00160104
0.00902619
0.0185007
0.029348
0.0407643
0.0518686
0.0617675
0.0696354
0.0748061
0.0768771
0.0758406
0.0720849
0.0658044
0.0575344
0.0201392
0.0086955
0.00122523
-0.0026693
-0.00372302
-0.00188637
0.00273005
0.0097832
0.0187789
0.0290936
0.0399907
0.0506529
0.0602319
0.067915
0.0730022
0.0750004
0.0737647
0.069455
0.0616018
0.0501013
0.0245018
0.00977264
0.000589117
-0.00398769
-0.0053031
-0.00350832
0.00117361
0.00833327
0.0174606
0.0279476
0.0390836
0.0500687
0.0600477
0.068164
0.0736253
0.0757966
0.0743678
0.0692885
0.0595242
0.0445357
0.0251776
0.00714957
-0.00380268
-0.009058
-0.010513
-0.00850091
-0.00335783
0.00442827
0.0143121
0.0256776
0.0378124
0.0499019
0.0610468
0.070302
0.0767335
0.0795157
0.0781377
0.0723323
0.0605379
0.0418886
0.0210932
-0.000262842
-0.0129352
-0.0187101
-0.0200307
-0.0174148
-0.0113193
-0.00232072
0.00898928
0.0219749
0.0359083
0.049943
0.0631108
0.074344
0.0825207
0.0865683
0.0857195
0.0794458
0.065619
0.0430703
0.0111423
-0.0136187
-0.0278757
-0.033855
-0.0346044
-0.0308584
-0.0232138
-0.0123461
0.00110382
0.0164828
0.0330513
0.0499323
0.066082
0.0802886
0.0911995
0.0974288
0.0978691
0.0916349
0.075895
0.0491151
-0.00596784
-0.0342671
-0.0498707
-0.0555493
-0.055091
-0.0495155
-0.0395945
-0.0261143
-0.00975808
0.00882198
0.0288999
0.0495923
0.0697963
0.0881533
0.103046
0.1127
0.115549
0.110191
0.0928331
0.0614102
-0.031858
-0.0638769
-0.0804177
-0.0850079
-0.0824209
-0.0740792
-0.0609819
-0.0440376
-0.0239525
-0.00133787
0.0231446
0.04866
0.0740945
0.0979711
0.118395
0.133125
0.139987
0.136817
0.11844
0.0819327
-0.0686683
-0.104604
-0.121345
-0.123591
-0.117516
-0.105127
-0.0877192
-0.0663265
-0.041638
-0.0141566
0.0156046
0.0469523
0.0788548
0.109793
0.137623
0.159585
0.172726
0.173777
0.15552
0.11357
-0.119403
-0.159358
-0.174916
-0.172758
-0.161148
-0.14293
-0.11976
-0.0927778
-0.0625783
-0.0294485
0.00637225
0.0444727
0.0840543
0.123702
0.161135
0.193085
0.215667
0.224076
0.20805
0.160632
-0.188629
-0.232243
-0.243939
-0.233948
-0.213695
-0.187155
-0.156373
-0.122502
-0.0858985
-0.0464728
-0.00401514
0.0415382
0.0898415
0.139829
0.189318
0.234689
0.271074
0.291664
0.281742
0.229775
-0.283975
-0.329305
-0.331832
-0.30828
-0.274709
-0.23644
-0.195764
-0.15361
-0.10984
-0.0637454
-0.0144382
0.0388631
0.096554
0.158276
0.222374
0.285288
0.341397
0.381575
0.384914
0.331834
-0.419319
-0.459671
-0.44235
-0.395792
-0.342129
-0.287739
-0.234615
-0.182929
-0.131609
-0.0789847
-0.0232138
0.0374755
0.104553
0.178838
0.259861
0.34497
0.428616
0.4997
0.529675
0.485392
-0.620531
-0.636743
-0.578676
-0.494192
-0.41124
-0.335657
-0.26778
-0.205977
-0.147536
-0.0893821
-0.0284252
0.0383491
0.113808
0.200472
0.299976
0.412026
0.53303
0.651776
0.732772
0.722396
-0.935923
-0.878514
-0.74174
-0.597947
-0.474392
-0.372658
-0.288867
-0.217761
-0.153952
-0.0924627
-0.0287161
0.0416969
0.123265
0.220719
0.338927
0.482156
0.651998
0.841343
1.01527
1.0975
-1.47642
-1.20663
-0.920502
-0.691386
-0.517303
-0.387542
-0.29006
-0.213336
-0.148122
-0.0872141
-0.0245763
0.0454588
0.128939
0.233072
0.367104
0.542679
0.771294
1.05932
1.40329
1.73014
-2.53965
-1.63055
-1.04444
-0.710957
-0.495749
-0.352091
-0.254529
-0.183582
-0.126168
-0.0735937
-0.0192677
0.0427882
0.119214
0.218784
0.354813
0.547985
0.826394
1.23658
1.91168
2.92419
-4.36666
-2.04463
-0.97354
-0.563179
-0.357844
-0.240145
-0.170118
-0.123781
-0.0874797
-0.0535088
-0.0166531
0.0276619
0.0846087
0.161731
0.272412
0.4421
0.71822
1.22571
2.41104
4.84853
)
;

boundaryField
{
    movingWall
    {
        type            zeroGradient;
    }
    fixedWalls
    {
        type            zeroGradient;
    }
    frontAndBack
    {
        type            empty;
    }
}


// ************************************************************************* //
