/*--------------------------------*- C++ -*----------------------------------*\
| =========                 |                                                 |
| \\      /  F ield         | OpenFOAM: The Open Source CFD Toolbox           |
|  \\    /   O peration     | Version:  2212                                  |
|   \\  /    A nd           | Website:  www.openfoam.com                      |
|    \\/     M anipulation  |                                                 |
\*---------------------------------------------------------------------------*/
FoamFile
{
    version     2.0;
    format      ascii;
    arch        "LSB;label=32;scalar=64";
    class       surfaceScalarField;
    location    "3.37";
    object      phi;
}
// * * * * * * * * * * * * * * * * * * * * * * * * * * * * * * * * * * * * * //

dimensions      [0 3 -1 0 0 0 0];

oriented        oriented;

internalField   nonuniform List<scalar> 
760
(
1.49519e-07
-1.49519e-07
2.79682e-07
-1.30163e-07
2.93017e-07
-1.33349e-08
1.67519e-07
1.25498e-07
-1.31602e-07
2.99121e-07
-6.65982e-07
5.3438e-07
-1.46686e-06
8.00877e-07
-2.4515e-06
9.84645e-07
-3.42475e-06
9.7325e-07
-4.15825e-06
7.33501e-07
-4.4852e-06
3.26941e-07
-4.30907e-06
-1.76125e-07
-3.5705e-06
-7.38568e-07
-2.38025e-06
-1.19025e-06
-9.63974e-07
-1.41628e-06
3.08954e-07
-1.27293e-06
1.05204e-06
-7.4309e-07
1.00908e-06
4.29665e-08
4.52259e-07
5.56819e-07
4.52259e-07
1.14214e-07
-2.63734e-07
5.57057e-08
-7.16545e-08
-3.12731e-07
3.55102e-07
-1.07916e-06
8.91924e-07
-2.28858e-06
1.50855e-06
-3.86549e-06
2.11129e-06
-5.56933e-06
2.50472e-06
-7.09425e-06
2.50956e-06
-8.21613e-06
2.09513e-06
-8.82318e-06
1.34055e-06
-8.86722e-06
3.70977e-07
-8.32409e-06
-7.19255e-07
-7.22466e-06
-1.838e-06
-5.60038e-06
-2.81452e-06
-3.59243e-06
-3.42423e-06
-1.50091e-06
-3.36445e-06
1.51811e-07
-2.39581e-06
8.35217e-07
-6.40438e-07
5.1564e-07
8.76397e-07
9.67899e-07
-1.34537e-07
-1.29197e-07
-6.37762e-07
4.3157e-07
-1.61009e-06
1.32743e-06
-3.09295e-06
2.37479e-06
-4.96885e-06
3.38444e-06
-6.95013e-06
4.09257e-06
-8.72747e-06
4.28206e-06
-1.01191e-05
3.90122e-06
-1.10703e-05
3.04633e-06
-1.15723e-05
1.84248e-06
-1.15761e-05
3.74836e-07
-1.11296e-05
-1.16581e-06
-1.02152e-05
-2.75237e-06
-8.77881e-06
-4.2509e-06
-6.79957e-06
-5.40348e-06
-4.3651e-06
-5.79891e-06
-1.86942e-06
-4.89149e-06
-9.41619e-08
-2.4157e-06
2.90428e-07
4.91807e-07
1.25833e-06
-4.94719e-07
3.65523e-07
-1.53572e-06
1.47257e-06
-3.06166e-06
2.85337e-06
-4.98265e-06
4.29578e-06
-7.04971e-06
5.45151e-06
-8.96218e-06
6.00503e-06
-1.05172e-05
5.83713e-06
-1.16679e-05
5.05186e-06
-1.24402e-05
3.81864e-06
-1.28687e-05
2.27097e-06
-1.29404e-05
4.46583e-07
-1.27101e-05
-1.39612e-06
-1.2142e-05
-3.3205e-06
-1.11343e-05
-5.25864e-06
-9.55582e-06
-6.98192e-06
-7.28236e-06
-8.07237e-06
-4.35255e-06
-7.82131e-06
-1.36916e-06
-5.39909e-06
1.17104e-07
-9.94456e-07
1.37543e-06
-8.43471e-07
1.20899e-06
-2.31049e-06
2.93959e-06
-4.14149e-06
4.68437e-06
-6.15089e-06
6.30518e-06
-8.06567e-06
7.36628e-06
-9.66401e-06
7.60338e-06
-1.08648e-05
7.03796e-06
-1.16911e-05
5.87817e-06
-1.22039e-05
4.33136e-06
-1.2476e-05
2.54314e-06
-1.25972e-05
5.67787e-07
-1.25591e-05
-1.43423e-06
-1.23512e-05
-3.52846e-06
-1.18933e-05
-5.71654e-06
-1.09987e-05
-7.87652e-06
-9.38018e-06
-9.69086e-06
-6.74252e-06
-1.0459e-05
-3.18718e-06
-8.95443e-06
-2.62017e-07
-3.91962e-06
1.11341e-06
-1.05868e-06
2.26768e-06
-2.71753e-06
4.59844e-06
-4.57264e-06
6.53949e-06
-6.39989e-06
8.13242e-06
-7.97827e-06
8.94466e-06
-9.17398e-06
8.7991e-06
-9.97779e-06
7.84177e-06
-1.04521e-05
6.35243e-06
-1.06866e-05
4.56595e-06
-1.07827e-05
2.6392e-06
-1.08624e-05
6.47481e-07
-1.0919e-05
-1.37763e-06
-1.09659e-05
-3.48158e-06
-1.09725e-05
-5.7099e-06
-1.07828e-05
-8.06628e-06
-1.00677e-05
-1.0406e-05
-8.33564e-06
-1.2191e-05
-5.17877e-06
-1.21113e-05
-1.14616e-06
-7.95223e-06
-3.27446e-08
-1.07918e-06
3.34686e-06
-2.68914e-06
6.20839e-06
-4.35416e-06
8.20451e-06
-5.86588e-06
9.64414e-06
-7.06489e-06
1.01437e-05
-7.88452e-06
9.61872e-06
-8.35749e-06
8.31474e-06
-8.56856e-06
6.56351e-06
-8.62168e-06
4.61907e-06
-8.61667e-06
2.6342e-06
-8.64016e-06
6.70966e-07
-8.71461e-06
-1.30318e-06
-8.85983e-06
-3.33636e-06
-9.08629e-06
-5.48345e-06
-9.33331e-06
-7.81926e-06
-9.36409e-06
-1.03752e-05
-8.65709e-06
-1.2898e-05
-6.46246e-06
-1.43059e-05
-2.39132e-06
-1.20234e-05
-2.42407e-06
-9.07691e-07
4.25455e-06
-2.28683e-06
7.58752e-06
-3.64814e-06
9.56583e-06
-4.80899e-06
1.0805e-05
-5.66718e-06
1.10019e-05
-6.20168e-06
1.01532e-05
-6.46559e-06
8.57864e-06
-6.5484e-06
6.64632e-06
-6.54776e-06
4.61844e-06
-6.54022e-06
2.62665e-06
-6.56583e-06
6.96571e-07
-6.64393e-06
-1.22508e-06
-6.7973e-06
-3.18298e-06
-7.05709e-06
-5.22365e-06
-7.43801e-06
-7.43834e-06
-7.84222e-06
-9.97096e-06
-7.85216e-06
-1.2888e-05
-6.65046e-06
-1.55076e-05
-3.53817e-06
-1.51357e-05
-5.96224e-06
-6.04801e-07
4.85935e-06
-1.64264e-06
8.62536e-06
-2.65662e-06
1.05798e-05
-3.48168e-06
1.163e-05
-4.06062e-06
1.15808e-05
-4.40044e-06
1.0493e-05
-4.55732e-06
8.73552e-06
-4.60913e-06
6.69813e-06
-4.6299e-06
4.6392e-06
-4.6663e-06
2.66306e-06
-4.7307e-06
7.60962e-07
-4.83108e-06
-1.1247e-06
-4.97914e-06
-3.03491e-06
-5.20559e-06
-4.99721e-06
-5.56636e-06
-7.07757e-06
-6.0709e-06
-9.46642e-06
-6.48993e-06
-1.2469e-05
-6.07572e-06
-1.59218e-05
-3.88564e-06
-1.73257e-05
-9.84788e-06
-2.2329e-07
5.08264e-06
-8.67886e-07
9.26996e-06
-1.52654e-06
1.12385e-05
-2.04613e-06
1.21496e-05
-2.3973e-06
1.1932e-05
-2.60264e-06
1.06984e-05
-2.70932e-06
8.84221e-06
-2.77061e-06
6.75941e-06
-2.83248e-06
4.70107e-06
-2.91841e-06
2.74899e-06
-3.03164e-06
8.74189e-07
-3.17254e-06
-9.83799e-07
-3.34263e-06
-2.86482e-06
-3.55654e-06
-4.7833e-06
-3.86917e-06
-6.76493e-06
-4.36256e-06
-8.97304e-06
-4.97452e-06
-1.18571e-05
-5.0907e-06
-1.58057e-05
-3.53589e-06
-1.88805e-05
-1.33838e-05
1.60624e-07
4.92202e-06
-6.54351e-08
9.49602e-06
-3.91117e-07
1.15641e-05
-6.36184e-07
1.23947e-05
-7.85395e-07
1.20812e-05
-8.69199e-07
1.07822e-05
-9.2726e-07
8.90027e-06
-9.92006e-07
6.82416e-06
-1.08034e-06
4.78941e-06
-1.19974e-06
2.86839e-06
-1.35187e-06
1.02632e-06
-1.53879e-06
-7.96879e-07
-1.76016e-06
-2.64345e-06
-2.01594e-06
-4.52752e-06
-2.33779e-06
-6.44309e-06
-2.82325e-06
-8.48758e-06
-3.53061e-06
-1.11497e-05
-4.00944e-06
-1.53268e-05
-3.0152e-06
-1.98748e-05
-1.6399e-05
4.86631e-07
4.43539e-06
6.80918e-07
9.30173e-06
7.24329e-07
1.15207e-05
7.61848e-07
1.23572e-05
8.09988e-07
1.2033e-05
8.42078e-07
1.07501e-05
8.36984e-07
8.90537e-06
7.86038e-07
6.87511e-06
6.91635e-07
4.88381e-06
5.56817e-07
3.00321e-06
3.78149e-07
1.20499e-06
1.49655e-07
-5.68385e-07
-1.31251e-07
-2.36254e-06
-4.71945e-07
-4.18682e-06
-8.79841e-07
-6.03519e-06
-1.40619e-06
-7.96123e-06
-2.19853e-06
-1.03574e-05
-2.95682e-06
-1.45685e-05
-2.46263e-06
-2.0369e-05
-1.88616e-05
7.31691e-07
3.7037e-06
1.31574e-06
8.71767e-06
1.70191e-06
1.11346e-05
2.02879e-06
1.20303e-05
2.30253e-06
1.17593e-05
2.49001e-06
1.05626e-05
2.58046e-06
8.81492e-06
2.58415e-06
6.87141e-06
2.51665e-06
4.95131e-06
2.38776e-06
3.1321e-06
2.19261e-06
1.40013e-06
1.91778e-06
-2.93553e-07
1.56171e-06
-2.00648e-06
1.11937e-06
-3.74448e-06
5.84274e-07
-5.50009e-06
-9.98125e-08
-7.27714e-06
-9.76421e-07
-9.48075e-06
-1.94155e-06
-1.36034e-05
-1.93579e-06
-2.03747e-05
-2.07974e-05
8.39899e-07
2.8638e-06
1.75516e-06
7.80242e-06
2.4824e-06
1.04073e-05
3.11511e-06
1.13976e-05
3.65886e-06
1.12156e-05
4.06754e-06
1.01539e-05
4.32226e-06
8.5602e-06
4.43606e-06
6.75761e-06
4.43345e-06
4.95393e-06
4.33201e-06
3.23354e-06
4.13183e-06
1.6003e-06
3.8087e-06
2.9585e-08
3.37149e-06
-1.56928e-06
2.80083e-06
-3.17382e-06
2.09526e-06
-4.79452e-06
1.26898e-06
-6.45086e-06
2.26041e-07
-8.43781e-06
-9.94193e-07
-1.23832e-05
-1.44424e-06
-1.99247e-05
-2.22416e-05
7.75742e-07
2.08806e-06
1.88928e-06
6.68888e-06
2.9089e-06
9.3877e-06
3.86723e-06
1.04393e-05
4.73465e-06
1.03481e-05
5.44276e-06
9.44583e-06
5.9495e-06
8.05345e-06
6.25642e-06
6.45069e-06
6.38551e-06
4.82484e-06
6.35748e-06
3.26158e-06
6.17419e-06
1.78359e-06
5.8291e-06
3.7467e-07
5.29873e-06
-1.0389e-06
4.58469e-06
-2.45978e-06
3.67938e-06
-3.88921e-06
2.61049e-06
-5.38197e-06
1.33049e-06
-7.15781e-06
-1.87742e-07
-1.08649e-05
-9.37847e-07
-1.91746e-05
-2.31795e-05
5.53899e-07
1.53416e-06
1.69602e-06
5.54676e-06
3.00193e-06
8.08179e-06
4.32707e-06
9.11412e-06
5.5745e-06
9.1007e-06
6.64411e-06
8.37622e-06
7.46791e-06
7.22966e-06
8.03135e-06
5.88725e-06
8.34705e-06
4.50914e-06
8.43374e-06
3.17489e-06
8.29963e-06
1.91771e-06
7.94423e-06
7.30064e-07
7.32544e-06
-4.20112e-07
6.45983e-06
-1.59418e-06
5.33481e-06
-2.76418e-06
3.99219e-06
-4.03936e-06
2.49315e-06
-5.65876e-06
8.97751e-07
-9.26955e-06
-1.7214e-07
-1.81047e-05
-2.33516e-05
1.38243e-07
1.39591e-06
9.87624e-07
4.69738e-06
2.42649e-06
6.64293e-06
4.11307e-06
7.42754e-06
5.80619e-06
7.40758e-06
7.31898e-06
6.86342e-06
8.54666e-06
6.00198e-06
9.45784e-06
4.97607e-06
1.00469e-05
3.92006e-06
1.03272e-05
2.89464e-06
1.03051e-05
1.9398e-06
9.98801e-06
1.04713e-06
9.33867e-06
2.29226e-07
8.36744e-06
-6.22939e-07
7.07372e-06
-1.47046e-06
5.50646e-06
-2.4721e-06
3.8212e-06
-3.97351e-06
2.18639e-06
-7.63474e-06
6.32064e-07
-1.65504e-05
-2.27196e-05
-5.07668e-07
1.90358e-06
1.79353e-07
4.01036e-06
1.68812e-06
5.13416e-06
3.70312e-06
5.41254e-06
5.8159e-06
5.2948e-06
7.74371e-06
4.93561e-06
9.34833e-06
4.39736e-06
1.05876e-05
3.73682e-06
1.14425e-05
3.06517e-06
1.19308e-05
2.40628e-06
1.20577e-05
1.81291e-06
1.18446e-05
1.26023e-06
1.13104e-05
7.63436e-07
1.04358e-05
2.51638e-07
9.22528e-06
-2.59924e-07
7.74312e-06
-9.89933e-07
6.17555e-06
-2.40593e-06
4.40708e-06
-5.86628e-06
2.03494e-06
-1.41782e-05
-2.06846e-05
-4.16906e-06
6.07264e-06
-3.63887e-06
3.48017e-06
-1.27604e-06
2.77133e-06
1.4798e-06
2.65669e-06
4.17676e-06
2.59784e-06
6.67338e-06
2.439e-06
8.85963e-06
2.21111e-06
1.06759e-05
1.92057e-06
1.21043e-05
1.63675e-06
1.31713e-05
1.33934e-06
1.38939e-05
1.09026e-06
1.43164e-05
8.37761e-07
1.4429e-05
6.50803e-07
1.42447e-05
4.35912e-07
1.37484e-05
2.3638e-07
1.29544e-05
-1.95951e-07
1.18584e-05
-1.3099e-06
1.00859e-05
-4.09374e-06
5.62699e-06
-9.71932e-06
-1.50576e-05
6.07264e-06
9.55281e-06
1.23241e-05
1.49808e-05
1.75787e-05
2.00177e-05
2.22288e-05
2.41493e-05
2.57861e-05
2.71254e-05
2.82157e-05
2.90534e-05
2.97042e-05
3.01402e-05
3.03765e-05
3.01806e-05
2.88707e-05
2.47769e-05
1.50576e-05
)
;

boundaryField
{
    movingWall
    {
        type            calculated;
        value           uniform 0;
    }
    fixedWalls
    {
        type            calculated;
        value           uniform 0;
    }
    frontAndBack
    {
        type            empty;
        value           nonuniform List<scalar> 0();
    }
}


// ************************************************************************* //
