/*--------------------------------*- C++ -*----------------------------------*\
| =========                 |                                                 |
| \\      /  F ield         | OpenFOAM: The Open Source CFD Toolbox           |
|  \\    /   O peration     | Version:  2212                                  |
|   \\  /    A nd           | Website:  www.openfoam.com                      |
|    \\/     M anipulation  |                                                 |
\*---------------------------------------------------------------------------*/
FoamFile
{
    version     2.0;
    format      ascii;
    arch        "LSB;label=32;scalar=64";
    class       volVectorField;
    location    "1.915";
    object      U;
}
// * * * * * * * * * * * * * * * * * * * * * * * * * * * * * * * * * * * * * //

dimensions      [0 1 -1 0 0 0 0];

internalField   nonuniform List<vector> 
400
(
(0.00100838 -0.00108601 0)
(0.00265401 -0.00110246 0)
(0.00319278 -0.00072739 0)
(0.00203737 -0.000271427 0)
(-0.00144333 0.000375125 0)
(-0.00812191 0.00156754 0)
(-0.0187957 0.00359684 0)
(-0.0334808 0.00626231 0)
(-0.0504451 0.00837588 0)
(-0.0660272 0.00839793 0)
(-0.0761696 0.00590214 0)
(-0.0781482 0.00181822 0)
(-0.0707702 -0.00263906 0)
(-0.0542635 -0.00676134 0)
(-0.0318675 -0.00914052 0)
(-0.0074702 -0.00842259 0)
(0.011904 -0.00450827 0)
(0.0193312 0.00188752 0)
(0.0133485 0.00520298 0)
(0.00373034 0.0039187 0)
(0.000639298 -0.00263487 0)
(0.000164759 -0.00139006 0)
(-0.00403221 0.00157076 0)
(-0.0130305 0.00558493 0)
(-0.0284617 0.0110387 0)
(-0.051152 0.0181068 0)
(-0.0795245 0.025405 0)
(-0.109017 0.0298246 0)
(-0.134216 0.028621 0)
(-0.151276 0.0214566 0)
(-0.158175 0.00985985 0)
(-0.154321 -0.00403308 0)
(-0.14018 -0.0183441 0)
(-0.116149 -0.030871 0)
(-0.0844117 -0.0381689 0)
(-0.0476687 -0.0364401 0)
(-0.0114451 -0.0237298 0)
(0.0133856 -0.00256457 0)
(0.0150476 0.0130659 0)
(0.00492673 0.0125015 0)
(-0.000967521 -0.00154958 0)
(-0.00639207 0.00409396 0)
(-0.0184425 0.0128856 0)
(-0.0377394 0.0244781 0)
(-0.0653257 0.0381502 0)
(-0.0992401 0.0509754 0)
(-0.134313 0.0585068 0)
(-0.165172 0.057579 0)
(-0.188676 0.0479689 0)
(-0.203504 0.0313397 0)
(-0.20915 0.00980594 0)
(-0.205826 -0.0145484 0)
(-0.193795 -0.0396101 0)
(-0.1727 -0.0620505 0)
(-0.142371 -0.0771378 0)
(-0.103072 -0.0784799 0)
(-0.0570506 -0.0600313 0)
(-0.0123227 -0.0221688 0)
(0.00847426 0.0139453 0)
(0.00405448 0.0202628 0)
(-0.00308815 0.00446531 0)
(-0.0146497 0.0176272 0)
(-0.0352458 0.0338239 0)
(-0.0634451 0.0532821 0)
(-0.0985243 0.0726451 0)
(-0.136164 0.0862918 0)
(-0.170628 0.0896409 0)
(-0.198451 0.081697 0)
(-0.218808 0.0643597 0)
(-0.231734 0.0400266 0)
(-0.237571 0.0106533 0)
(-0.23692 -0.0222257 0)
(-0.229844 -0.0565574 0)
(-0.215412 -0.0893222 0)
(-0.191877 -0.115486 0)
(-0.156892 -0.126904 0)
(-0.108761 -0.112674 0)
(-0.0500677 -0.0645897 0)
(-0.000828123 0.000841051 0)
(0.00456375 0.0246387 0)
(-0.00518112 0.0158042 0)
(-0.022255 0.0385447 0)
(-0.0493347 0.0618149 0)
(-0.0825241 0.0869905 0)
(-0.119555 0.108326 0)
(-0.155144 0.119274 0)
(-0.184696 0.116798 0)
(-0.206834 0.102157 0)
(-0.222052 0.0784527 0)
(-0.231403 0.0483807 0)
(-0.236259 0.0137247 0)
(-0.237617 -0.0244967 0)
(-0.235559 -0.0650113 0)
(-0.229284 -0.106099 0)
(-0.216425 -0.14401 0)
(-0.192672 -0.170761 0)
(-0.152801 -0.172232 0)
(-0.093128 -0.12956 0)
(-0.0192735 -0.0361779 0)
(0.00662189 0.02394 0)
(-0.00638722 0.0309371 0)
(-0.0267569 0.0640574 0)
(-0.0567986 0.0928051 0)
(-0.0904977 0.120888 0)
(-0.124811 0.141205 0)
(-0.154629 0.147553 0)
(-0.176941 0.138806 0)
(-0.191847 0.118021 0)
(-0.200681 0.0891532 0)
(-0.205367 0.0552686 0)
(-0.20795 0.0182113 0)
(-0.209681 -0.0213208 0)
(-0.21094 -0.0633213 0)
(-0.211606 -0.107921 0)
(-0.209772 -0.153866 0)
(-0.200477 -0.195782 0)
(-0.176111 -0.219961 0)
(-0.128803 -0.200669 0)
(-0.0552692 -0.107229 0)
(0.00508351 0.0127502 0)
(-0.00621371 0.0475686 0)
(-0.0269372 0.0907698 0)
(-0.0562859 0.122998 0)
(-0.0869315 0.151472 0)
(-0.11576 0.168799 0)
(-0.13843 0.16966 0)
(-0.153428 0.154706 0)
(-0.16183 0.128424 0)
(-0.165518 0.0955011 0)
(-0.166767 0.0592991 0)
(-0.167478 0.0215998 0)
(-0.168636 -0.0171592 0)
(-0.170853 -0.0576565 0)
(-0.174793 -0.101227 0)
(-0.179849 -0.148976 0)
(-0.1823 -0.199729 0)
(-0.174189 -0.244299 0)
(-0.145726 -0.256809 0)
(-0.0909402 -0.189743 0)
(-0.00719583 -0.0135722 0)
(-0.00467335 0.0631377 0)
(-0.0229544 0.11569 0)
(-0.0487168 0.149815 0)
(-0.0741697 0.176961 0)
(-0.0965466 0.190322 0)
(-0.112522 0.185595 0)
(-0.121769 0.16497 0)
(-0.125929 0.134093 0)
(-0.127123 0.0981949 0)
(-0.127452 0.0606388 0)
(-0.128058 0.0228213 0)
(-0.129198 -0.0151654 0)
(-0.131273 -0.0539668 0)
(-0.135297 -0.0948412 0)
(-0.142065 -0.13997 0)
(-0.15026 -0.192056 0)
(-0.153545 -0.248889 0)
(-0.141391 -0.290182 0)
(-0.106473 -0.2595 0)
(-0.0275041 -0.0674645 0)
(-0.00219059 0.075301 0)
(-0.0159519 0.136356 0)
(-0.0362582 0.171455 0)
(-0.055565 0.196368 0)
(-0.0716091 0.205702 0)
(-0.0820939 0.196162 0)
(-0.087491 0.171094 0)
(-0.0896082 0.136962 0)
(-0.0904361 0.0993114 0)
(-0.0915111 0.0612418 0)
(-0.0931175 0.0235558 0)
(-0.0949162 -0.0140972 0)
(-0.0969705 -0.0521386 0)
(-0.100069 -0.0909852 0)
(-0.105769 -0.132439 0)
(-0.115131 -0.181285 0)
(-0.124682 -0.242418 0)
(-0.123614 -0.305778 0)
(-0.103981 -0.315839 0)
(-0.0354472 -0.148654 0)
(0.00068909 0.0823641 0)
(-0.00724692 0.15123 0)
(-0.0210084 0.187247 0)
(-0.0339007 0.210004 0)
(-0.0440925 0.216061 0)
(-0.0502294 0.203 0)
(-0.0531677 0.174963 0)
(-0.0544928 0.138968 0)
(-0.0557532 0.100672 0)
(-0.057846 0.0627516 0)
(-0.0605322 0.0253499 0)
(-0.0632603 -0.0122775 0)
(-0.0658858 -0.0503586 0)
(-0.068733 -0.0884271 0)
(-0.0732113 -0.127061 0)
(-0.0815518 -0.170953 0)
(-0.0938676 -0.230096 0)
(-0.0998045 -0.306848 0)
(-0.0936304 -0.35414 0)
(-0.0305492 -0.226715 0)
(0.00345097 0.083433 0)
(0.00180063 0.15923 0)
(-0.0050102 0.196666 0)
(-0.011563 0.2177 0)
(-0.0163643 0.22143 0)
(-0.0187535 0.206371 0)
(-0.0197215 0.177061 0)
(-0.0204274 0.140652 0)
(-0.0218479 0.102649 0)
(-0.0243761 0.0653181 0)
(-0.0276023 0.0283836 0)
(-0.0310863 -0.00909257 0)
(-0.0347154 -0.047302 0)
(-0.038488 -0.085298 0)
(-0.0432359 -0.122496 0)
(-0.0508891 -0.162046 0)
(-0.0647018 -0.216267 0)
(-0.0747859 -0.299893 0)
(-0.0808281 -0.378477 0)
(-0.0230445 -0.290637 0)
(0.00564795 0.0788954 0)
(0.010217 0.160227 0)
(0.0103342 0.199934 0)
(0.00995283 0.220295 0)
(0.0103874 0.222951 0)
(0.0117331 0.207319 0)
(0.0129609 0.178068 0)
(0.0133366 0.1422 0)
(0.0124262 0.104962 0)
(0.0102071 0.0684038 0)
(0.0070643 0.0321851 0)
(0.00313037 -0.00464524 0)
(-0.00159736 -0.0423047 0)
(-0.00704437 -0.0799293 0)
(-0.0136585 -0.11623 0)
(-0.0220666 -0.152479 0)
(-0.03796 -0.200643 0)
(-0.0507164 -0.286052 0)
(-0.0686117 -0.391061 0)
(-0.0149924 -0.343891 0)
(0.00671124 0.0698302 0)
(0.0167824 0.154371 0)
(0.0234556 0.196585 0)
(0.0288912 0.216813 0)
(0.0344353 0.219266 0)
(0.0399375 0.204358 0)
(0.0442439 0.176511 0)
(0.0467347 0.142201 0)
(0.0472752 0.106364 0)
(0.0460635 0.0710276 0)
(0.0434494 0.0360144 0)
(0.0393736 0.000429181 0)
(0.0336872 -0.0358134 0)
(0.0263097 -0.0721762 0)
(0.0167225 -0.107222 0)
(0.00580474 -0.140906 0)
(-0.0134572 -0.183654 0)
(-0.0274273 -0.267374 0)
(-0.0573274 -0.393923 0)
(-0.00688123 -0.386558 0)
(0.00628056 0.0580082 0)
(0.0204001 0.142369 0)
(0.0332263 0.187371 0)
(0.0444826 0.208437 0)
(0.0553416 0.211622 0)
(0.0655869 0.198461 0)
(0.0739365 0.173005 0)
(0.0796319 0.141003 0)
(0.0825654 0.107034 0)
(0.0829947 0.0732603 0)
(0.0812323 0.0398981 0)
(0.0772037 0.00630754 0)
(0.0705582 -0.0276074 0)
(0.0612524 -0.0616542 0)
(0.0484229 -0.0946028 0)
(0.0336589 -0.125744 0)
(0.00951954 -0.163467 0)
(-0.00434384 -0.24414 0)
(-0.0470435 -0.390558 0)
(0.00174296 -0.422451 0)
(0.00436114 0.045986 0)
(0.0199207 0.126174 0)
(0.037323 0.17184 0)
(0.0539101 0.192824 0)
(0.0703751 0.196642 0)
(0.0862143 0.185789 0)
(0.0998499 0.163765 0)
(0.110147 0.135326 0)
(0.11675 0.104499 0)
(0.119795 0.073462 0)
(0.119488 0.0428525 0)
(0.115903 0.0123609 0)
(0.108301 -0.0180761 0)
(0.097134 -0.0484791 0)
(0.0806607 -0.0780132 0)
(0.0616158 -0.106626 0)
(0.0321059 -0.140434 0)
(0.0186191 -0.218252 0)
(-0.0373636 -0.384016 0)
(0.0120086 -0.452907 0)
(0.00133618 0.0360576 0)
(0.0152032 0.108394 0)
(0.0358481 0.153423 0)
(0.057521 0.174092 0)
(0.0798732 0.178171 0)
(0.101805 0.16937 0)
(0.121484 0.15097 0)
(0.137306 0.126713 0)
(0.148504 0.0999218 0)
(0.155036 0.0726045 0)
(0.156741 0.0456578 0)
(0.154182 0.0191598 0)
(0.145843 -0.0070165 0)
(0.13305 -0.0326398 0)
(0.112849 -0.0575089 0)
(0.0898002 -0.0827336 0)
(0.0550485 -0.113917 0)
(0.0407353 -0.190631 0)
(-0.0266475 -0.375546 0)
(0.0264098 -0.477037 0)
(-0.00291342 0.0337999 0)
(0.0036671 0.0932597 0)
(0.0228274 0.128072 0)
(0.0490847 0.144956 0)
(0.0780403 0.148617 0)
(0.107194 0.142111 0)
(0.134037 0.128074 0)
(0.1566 0.109212 0)
(0.173559 0.0880992 0)
(0.184758 0.0663722 0)
(0.189442 0.0450516 0)
(0.188641 0.0243223 0)
(0.180339 0.00430922 0)
(0.167133 -0.015191 0)
(0.144132 -0.0340517 0)
(0.118863 -0.0551735 0)
(0.0798816 -0.085791 0)
(0.062495 -0.165248 0)
(-0.00892742 -0.362065 0)
(0.0498553 -0.486423 0)
(-0.0100327 0.0241315 0)
(-0.00827214 0.0871004 0)
(0.00847889 0.11302 0)
(0.0376804 0.120722 0)
(0.072024 0.119942 0)
(0.107275 0.113693 0)
(0.140349 0.103201 0)
(0.168657 0.089486 0)
(0.190655 0.0744125 0)
(0.20644 0.0588069 0)
(0.214323 0.0439053 0)
(0.216856 0.0295654 0)
(0.21018 0.016631 0)
(0.200041 0.00387805 0)
(0.178229 -0.00838189 0)
(0.157408 -0.0256642 0)
(0.1174 -0.0566943 0)
(0.0982494 -0.13781 0)
(0.0326675 -0.323905 0)
(0.0905701 -0.454134 0)
(-0.103538 0.0863907 0)
(-0.0768321 0.070724 0)
(-0.0525611 0.0679458 0)
(-0.00734754 0.0687559 0)
(0.038702 0.0680352 0)
(0.0849509 0.0648266 0)
(0.127512 0.0596028 0)
(0.166826 0.052487 0)
(0.198015 0.0449532 0)
(0.226102 0.0369676 0)
(0.243323 0.029754 0)
(0.260004 0.0227504 0)
(0.263156 0.017032 0)
(0.269565 0.011336 0)
(0.257415 0.00551696 0)
(0.25319 -0.00528796 0)
(0.217676 -0.0305643 0)
(0.209613 -0.0923271 0)
(0.147268 -0.229151 0)
(0.170055 -0.341236 0)
(0.131629 0.105396 0)
(0.161942 0.0787599 0)
(0.2174 0.0567689 0)
(0.274712 0.0441023 0)
(0.324047 0.0372159 0)
(0.371989 0.032447 0)
(0.412385 0.0290734 0)
(0.454156 0.0256674 0)
(0.485125 0.0231202 0)
(0.519209 0.0200594 0)
(0.538672 0.0180992 0)
(0.565063 0.0152684 0)
(0.572567 0.0140189 0)
(0.592473 0.0112821 0)
(0.586158 0.0104893 0)
(0.596902 0.00602845 0)
(0.563798 0.0011734 0)
(0.546591 -0.017384 0)
(0.437045 -0.0499174 0)
(0.337791 -0.101209 0)
)
;

boundaryField
{
    movingWall
    {
        type            fixedValue;
        value           uniform (1 0 0);
    }
    fixedWalls
    {
        type            noSlip;
    }
    frontAndBack
    {
        type            empty;
    }
}


// ************************************************************************* //
