/*--------------------------------*- C++ -*----------------------------------*\
| =========                 |                                                 |
| \\      /  F ield         | OpenFOAM: The Open Source CFD Toolbox           |
|  \\    /   O peration     | Version:  2212                                  |
|   \\  /    A nd           | Website:  www.openfoam.com                      |
|    \\/     M anipulation  |                                                 |
\*---------------------------------------------------------------------------*/
FoamFile
{
    version     2.0;
    format      ascii;
    arch        "LSB;label=32;scalar=64";
    class       volVectorField;
    location    "4.38";
    object      U;
}
// * * * * * * * * * * * * * * * * * * * * * * * * * * * * * * * * * * * * * //

dimensions      [0 1 -1 0 0 0 0];

internalField   nonuniform List<vector> 
400
(
(0.00166476 -0.00166931 0)
(0.00478369 -0.00187403 0)
(0.00650549 -0.0011905 0)
(0.00558069 -0.000568237 0)
(0.00148839 0.000190257 0)
(-0.00687284 0.00173781 0)
(-0.0205713 0.00475704 0)
(-0.0393873 0.00867167 0)
(-0.06054 0.0112205 0)
(-0.0788041 0.0104698 0)
(-0.0894912 0.00677142 0)
(-0.0902148 0.001697 0)
(-0.0801028 -0.003565 0)
(-0.0600131 -0.00821532 0)
(-0.0336761 -0.0107954 0)
(-0.00554332 -0.00976936 0)
(0.0164448 -0.00480338 0)
(0.0242499 0.00272663 0)
(0.0160797 0.00642297 0)
(0.0042998 0.00469179 0)
(0.00168903 -0.00500107 0)
(0.00307597 -0.00396381 0)
(-0.000529227 0.00061597 0)
(-0.0114062 0.00642822 0)
(-0.0313916 0.0139834 0)
(-0.0609288 0.0236302 0)
(-0.0964162 0.0328523 0)
(-0.130869 0.0368865 0)
(-0.158296 0.0333788 0)
(-0.175415 0.0233582 0)
(-0.180812 0.00916074 0)
(-0.174531 -0.00686053 0)
(-0.157148 -0.0229846 0)
(-0.129392 -0.0367029 0)
(-0.0935179 -0.0443777 0)
(-0.0522567 -0.0417266 0)
(-0.0115734 -0.0263501 0)
(0.0166723 -0.00140657 0)
(0.0177461 0.0160804 0)
(0.0055197 0.0147364 0)
(-0.000268982 -0.00565976 0)
(-0.00543511 0.000904861 0)
(-0.0196245 0.014284 0)
(-0.0443847 0.0310821 0)
(-0.0799952 0.0491554 0)
(-0.12161 0.0639422 0)
(-0.161555 0.0701679 0)
(-0.194342 0.0657292 0)
(-0.217856 0.0520156 0)
(-0.231502 0.0315037 0)
(-0.235289 0.00653367 0)
(-0.229874 -0.0208618 0)
(-0.215568 -0.0485182 0)
(-0.191867 -0.0728241 0)
(-0.1585 -0.0886491 0)
(-0.115432 -0.0889618 0)
(-0.0644633 -0.0669507 0)
(-0.0139116 -0.0228274 0)
(0.00940487 0.0176925 0)
(0.00415255 0.0234456 0)
(-0.0034704 0.000591352 0)
(-0.0174677 0.01729 0)
(-0.0433427 0.0413294 0)
(-0.0792857 0.0678081 0)
(-0.122292 0.0906278 0)
(-0.164951 0.103278 0)
(-0.200853 0.102397 0)
(-0.228053 0.0892913 0)
(-0.246811 0.0671079 0)
(-0.25773 0.0385474 0)
(-0.26165 0.00548303 0)
(-0.259374 -0.0307583 0)
(-0.250838 -0.0679432 0)
(-0.234995 -0.103138 0)
(-0.209852 -0.13088 0)
(-0.172707 -0.142378 0)
(-0.121007 -0.125467 0)
(-0.0567278 -0.0708637 0)
(-0.0010456 0.00331905 0)
(0.00473941 0.028073 0)
(-0.00662931 0.0148611 0)
(-0.0285719 0.04401 0)
(-0.0629236 0.0767003 0)
(-0.10383 0.108288 0)
(-0.146391 0.130464 0)
(-0.183498 0.137468 0)
(-0.211694 0.128879 0)
(-0.231362 0.108275 0)
(-0.243792 0.0795147 0)
(-0.250714 0.045386 0)
(-0.253822 0.00742306 0)
(-0.254045 -0.0335737 0)
(-0.251163 -0.0764576 0)
(-0.244613 -0.11992 0)
(-0.231582 -0.160005 0)
(-0.207447 -0.188268 0)
(-0.166171 -0.189389 0)
(-0.103083 -0.142592 0)
(-0.0221736 -0.038995 0)
(0.00733804 0.0269053 0)
(-0.00845012 0.0348144 0)
(-0.0349344 0.0763309 0)
(-0.0725971 0.114321 0)
(-0.112503 0.146844 0)
(-0.149545 0.165105 0)
(-0.178251 0.165097 0)
(-0.197646 0.149012 0)
(-0.209268 0.121919 0)
(-0.215103 0.0881687 0)
(-0.21764 0.0507492 0)
(-0.218865 0.0111258 0)
(-0.219793 -0.0302935 0)
(-0.220628 -0.0739983 0)
(-0.221456 -0.120388 0)
(-0.22007 -0.168253 0)
(-0.211361 -0.212108 0)
(-0.187239 -0.23775 0)
(-0.139127 -0.217922 0)
(-0.0625879 -0.118706 0)
(0.00577211 0.0140577 0)
(-0.00822058 0.0567741 0)
(-0.0350611 0.10948 0)
(-0.0712951 0.14964 0)
(-0.106296 0.18013 0)
(-0.135748 0.192789 0)
(-0.156019 0.185472 0)
(-0.167793 0.162438 0)
(-0.173176 0.129822 0)
(-0.174585 0.0924003 0)
(-0.174538 0.0532003 0)
(-0.17457 0.013461 0)
(-0.175377 -0.026784 0)
(-0.177512 -0.0687051 0)
(-0.181507 -0.113618 0)
(-0.186693 -0.16266 0)
(-0.189404 -0.214676 0)
(-0.181722 -0.260654 0)
(-0.153653 -0.274334 0)
(-0.0989436 -0.205336 0)
(-0.00888742 -0.0147133 0)
(-0.00607186 0.0771901 0)
(-0.0295286 0.139816 0)
(-0.0609229 0.180175 0)
(-0.0891896 0.207113 0)
(-0.111048 0.213693 0)
(-0.12446 0.199453 0)
(-0.131 0.170341 0)
(-0.132968 0.133334 0)
(-0.13283 0.0934463 0)
(-0.132557 0.0534109 0)
(-0.132858 0.0139543 0)
(-0.133932 -0.0253127 0)
(-0.136246 -0.0654511 0)
(-0.140492 -0.107735 0)
(-0.147268 -0.154185 0)
(-0.155225 -0.207173 0)
(-0.15833 -0.264698 0)
(-0.146197 -0.307121 0)
(-0.111818 -0.2764 0)
(-0.0307982 -0.0751221 0)
(-0.00269038 0.093048 0)
(-0.0202129 0.164715 0)
(-0.0447477 0.204396 0)
(-0.0657796 0.227231 0)
(-0.0809262 0.228199 0)
(-0.0893054 0.208296 0)
(-0.0927921 0.174643 0)
(-0.0935237 0.134738 0)
(-0.0936108 0.0936157 0)
(-0.0942473 0.0535381 0)
(-0.0954972 0.0146009 0)
(-0.0972724 -0.0240037 0)
(-0.0997536 -0.0630979 0)
(-0.103452 -0.103429 0)
(-0.109517 -0.146685 0)
(-0.118664 -0.196857 0)
(-0.127687 -0.258359 0)
(-0.126088 -0.322292 0)
(-0.107134 -0.333733 0)
(-0.0371907 -0.162741 0)
(0.00122237 0.102079 0)
(-0.00882807 0.182404 0)
(-0.0253857 0.221818 0)
(-0.0392681 0.241295 0)
(-0.0486591 0.238068 0)
(-0.0534451 0.214167 0)
(-0.0552974 0.177488 0)
(-0.0558682 0.135905 0)
(-0.056688 0.09438 0)
(-0.0583189 0.0546428 0)
(-0.0605387 0.0162313 0)
(-0.0632004 -0.021941 0)
(-0.066303 -0.0605672 0)
(-0.0700379 -0.0999333 0)
(-0.0753513 -0.140811 0)
(-0.0838285 -0.186935 0)
(-0.0955364 -0.246671 0)
(-0.100368 -0.323033 0)
(-0.0949568 -0.371122 0)
(-0.0308448 -0.241674 0)
(0.00507604 0.103202 0)
(0.00296102 0.191906 0)
(-0.00530626 0.232223 0)
(-0.0123558 0.249245 0)
(-0.0166957 0.243167 0)
(-0.0185324 0.217015 0)
(-0.0191537 0.17902 0)
(-0.0196047 0.137052 0)
(-0.020835 0.0958284 0)
(-0.0230234 0.0566975 0)
(-0.0258763 0.0189205 0)
(-0.0293241 -0.0186829 0)
(-0.0333854 -0.0568456 0)
(-0.0380169 -0.0956951 0)
(-0.0437798 -0.135234 0)
(-0.0519438 -0.177976 0)
(-0.065412 -0.233739 0)
(-0.0740983 -0.316675 0)
(-0.081099 -0.395555 0)
(-0.0229095 -0.306116 0)
(0.00836258 0.0967682 0)
(0.0140993 0.192866 0)
(0.0139946 0.23571 0)
(0.013611 0.251989 0)
(0.0142382 0.244909 0)
(0.0154396 0.21826 0)
(0.0163073 0.180278 0)
(0.0163687 0.138675 0)
(0.0152259 0.0979695 0)
(0.0129328 0.0594472 0)
(0.00976253 0.0224006 0)
(0.00568329 -0.0143463 0)
(0.000550663 -0.0516458 0)
(-0.00550849 -0.0896667 0)
(-0.0129028 -0.128099 0)
(-0.021837 -0.168052 0)
(-0.0376112 -0.218648 0)
(-0.0487927 -0.302977 0)
(-0.0679256 -0.407328 0)
(-0.0144713 -0.358987 0)
(0.0101886 0.0839223 0)
(0.0231723 0.185319 0)
(0.0307812 0.231854 0)
(0.0366669 0.248547 0)
(0.0422852 0.2417 0)
(0.0471966 0.215978 0)
(0.050586 0.179298 0)
(0.0522046 0.139019 0)
(0.052005 0.0994882 0)
(0.0502061 0.0620577 0)
(0.047057 0.0262041 0)
(0.0424687 -0.00918515 0)
(0.0362662 -0.0450492 0)
(0.0285515 -0.0816249 0)
(0.0185473 -0.118586 0)
(0.00734128 -0.15624 0)
(-0.0119811 -0.202316 0)
(-0.0244831 -0.284951 0)
(-0.0559675 -0.409885 0)
(-0.0061797 -0.400905 0)
(0.00972625 0.0668851 0)
(0.028685 0.169651 0)
(0.0438854 0.220857 0)
(0.0563253 0.239786 0)
(0.0675238 0.234836 0)
(0.0771183 0.211535 0)
(0.0842421 0.177338 0)
(0.0885894 0.139138 0)
(0.0902407 0.101205 0)
(0.0895126 0.0651158 0)
(0.086746 0.0307215 0)
(0.0817148 -0.00300984 0)
(0.0742778 -0.0367047 0)
(0.0647058 -0.0709811 0)
(0.0516555 -0.105671 0)
(0.0369196 -0.140713 0)
(0.0126843 -0.182237 0)
(-0.000321378 -0.261773 0)
(-0.0450054 -0.405688 0)
(0.00269459 -0.435425 0)
(0.0068176 0.0492936 0)
(0.0289756 0.148158 0)
(0.0505221 0.202427 0)
(0.0692418 0.223146 0)
(0.0865752 0.22025 0)
(0.102132 0.200152 0)
(0.114663 0.169667 0)
(0.123482 0.134932 0)
(0.128509 0.0999567 0)
(0.130007 0.0664421 0)
(0.128257 0.0346269 0)
(0.123327 0.00368346 0)
(0.114748 -0.0267517 0)
(0.103147 -0.0575516 0)
(0.0862953 -0.0887921 0)
(0.0673536 -0.12112 0)
(0.0375863 -0.159023 0)
(0.0233758 -0.235809 0)
(-0.0347028 -0.398074 0)
(0.0133674 -0.463787 0)
(0.00234323 0.0347252 0)
(0.0232998 0.123387 0)
(0.0503345 0.178982 0)
(0.0758388 0.201741 0)
(0.100302 0.201358 0)
(0.122994 0.184998 0)
(0.142262 0.159044 0)
(0.156891 0.128765 0)
(0.166469 0.0977758 0)
(0.171221 0.0677803 0)
(0.171108 0.0393648 0)
(0.166854 0.0121077 0)
(0.157086 -0.0143598 0)
(0.143489 -0.0407903 0)
(0.122445 -0.0675075 0)
(0.0991903 -0.0960725 0)
(0.0636885 -0.13118 0)
(0.0464766 -0.206378 0)
(-0.023017 -0.386477 0)
(0.0283797 -0.485143 0)
(-0.00339912 0.0288639 0)
(0.00982801 0.101296 0)
(0.0365507 0.148001 0)
(0.0681428 0.168505 0)
(0.100785 0.169635 0)
(0.132264 0.157368 0)
(0.160031 0.137024 0)
(0.18236 0.112762 0)
(0.19822 0.0876577 0)
(0.207981 0.0632407 0)
(0.210816 0.0402561 0)
(0.20851 0.0185623 0)
(0.198326 -0.00220919 0)
(0.183833 -0.0225699 0)
(0.159288 -0.0430064 0)
(0.132992 -0.0666216 0)
(0.0918803 -0.100535 0)
(0.0693527 -0.179146 0)
(-0.00466259 -0.369674 0)
(0.0520146 -0.491437 0)
(-0.0138431 0.0187626 0)
(-0.007501 0.088215 0)
(0.0188749 0.123855 0)
(0.0557796 0.136723 0)
(0.0966009 0.136188 0)
(0.136665 0.126987 0)
(0.172625 0.112381 0)
(0.2022 0.0946999 0)
(0.223885 0.0763645 0)
(0.238794 0.0583774 0)
(0.24475 0.0417021 0)
(0.245628 0.0262058 0)
(0.2364 0.0120623 0)
(0.224718 -0.0015611 0)
(0.200019 -0.0154433 0)
(0.176412 -0.0343066 0)
(0.132503 -0.0670784 0)
(0.107299 -0.145579 0)
(0.0372285 -0.326066 0)
(0.0922692 -0.455848 0)
(-0.105902 0.0825913 0)
(-0.077661 0.0691299 0)
(-0.0486136 0.0732431 0)
(0.00347787 0.0775989 0)
(0.0566825 0.0778408 0)
(0.109098 0.0735504 0)
(0.155976 0.0662413 0)
(0.198064 0.0568932 0)
(0.229978 0.0473041 0)
(0.257968 0.0377431 0)
(0.273642 0.0291907 0)
(0.288785 0.0213085 0)
(0.289248 0.0146591 0)
(0.293511 0.00835186 0)
(0.277507 0.00146127 0)
(0.270593 -0.00967702 0)
(0.231595 -0.0352718 0)
(0.217813 -0.0952867 0)
(0.150146 -0.229721 0)
(0.170661 -0.341485 0)
(0.130035 0.103791 0)
(0.158461 0.0753562 0)
(0.212389 0.0533716 0)
(0.270885 0.0417349 0)
(0.32336 0.035984 0)
(0.375631 0.0319839 0)
(0.420038 0.0289322 0)
(0.465164 0.0255882 0)
(0.498105 0.0229144 0)
(0.533237 0.0197303 0)
(0.552618 0.0175823 0)
(0.578425 0.0146574 0)
(0.584619 0.0132294 0)
(0.603066 0.0104224 0)
(0.594643 0.00947015 0)
(0.603324 0.00507777 0)
(0.567696 0.000153178 0)
(0.547702 -0.0182771 0)
(0.435872 -0.050412 0)
(0.336841 -0.101402 0)
)
;

boundaryField
{
    movingWall
    {
        type            fixedValue;
        value           uniform (1 0 0);
    }
    fixedWalls
    {
        type            noSlip;
    }
    frontAndBack
    {
        type            empty;
    }
}


// ************************************************************************* //
