/*--------------------------------*- C++ -*----------------------------------*\
| =========                 |                                                 |
| \\      /  F ield         | OpenFOAM: The Open Source CFD Toolbox           |
|  \\    /   O peration     | Version:  2212                                  |
|   \\  /    A nd           | Website:  www.openfoam.com                      |
|    \\/     M anipulation  |                                                 |
\*---------------------------------------------------------------------------*/
FoamFile
{
    version     2.0;
    format      ascii;
    arch        "LSB;label=32;scalar=64";
    class       volScalarField;
    location    "4.63";
    object      p;
}
// * * * * * * * * * * * * * * * * * * * * * * * * * * * * * * * * * * * * * //

dimensions      [0 2 -2 0 0 0 0];

internalField   nonuniform List<scalar> 
400
(
8.1761e-07
-0.0058286
-0.012967
-0.0184195
-0.0204372
-0.0182436
-0.0117791
-0.00148896
0.0118322
0.0271441
0.0432395
0.0588183
0.0725741
0.083304
0.0900483
0.0922624
0.0900212
0.0842392
0.0768759
0.0710623
0.00577749
-0.000222097
-0.00580824
-0.00954712
-0.0106037
-0.00843764
-0.00297496
0.00546905
0.0162978
0.0287066
0.0417448
0.0543811
0.0655817
0.0744053
0.0801157
0.0823112
0.0810726
0.0770501
0.0712693
0.065313
0.0133313
0.00502963
-0.000999625
-0.00442768
-0.00527769
-0.00326883
0.00159736
0.00902255
0.018497
0.0293442
0.0407604
0.0518647
0.0617637
0.0696316
0.0748023
0.0768734
0.0758369
0.0720811
0.0658006
0.0575305
0.0201355
0.00869184
0.00122153
-0.00267308
-0.00372687
-0.00189022
0.00272628
0.00977953
0.0187753
0.02909
0.0399869
0.050649
0.060228
0.0679111
0.0729984
0.0749967
0.073761
0.0694513
0.061598
0.0500974
0.024498
0.00976896
0.000585465
-0.0039914
-0.00530692
-0.00351221
0.00116974
0.0083295
0.0174569
0.027944
0.03908
0.0500649
0.0600439
0.0681601
0.0736214
0.0757928
0.0743641
0.0692848
0.0595205
0.044532
0.0251738
0.00714583
-0.00380633
-0.00906163
-0.0105167
-0.00850475
-0.00336175
0.00442438
0.0143083
0.0256739
0.0378088
0.0498983
0.0610431
0.0702981
0.0767296
0.0795119
0.0781339
0.0723285
0.0605342
0.0418849
0.0210893
-0.000266671
-0.0129389
-0.0187137
-0.0200343
-0.0174186
-0.0113232
-0.00232465
0.00898538
0.0219711
0.0359046
0.0499393
0.0631072
0.0743403
0.0825169
0.0865644
0.0857156
0.079442
0.0656153
0.0430666
0.0111385
-0.0136226
-0.0278795
-0.0338587
-0.034608
-0.030862
-0.0232175
-0.01235
0.00109989
0.0164789
0.0330475
0.0499286
0.0660784
0.0802849
0.0911957
0.097425
0.0978652
0.091631
0.0758912
0.0491114
-0.00597159
-0.034271
-0.0498746
-0.0555532
-0.0550947
-0.0495191
-0.0395981
-0.026118
-0.00976194
0.00881805
0.028896
0.0495885
0.0697925
0.0881496
0.103043
0.112696
0.115546
0.110187
0.0928293
0.0614064
-0.0318617
-0.0638807
-0.0804216
-0.0850118
-0.0824247
-0.0740829
-0.0609855
-0.0440412
-0.0239562
-0.00134172
0.0231407
0.0486561
0.0740907
0.0979674
0.118391
0.133121
0.139984
0.136813
0.118436
0.0819289
-0.0686719
-0.104608
-0.121349
-0.123595
-0.11752
-0.105131
-0.0877228
-0.0663301
-0.0416416
-0.0141603
0.0156008
0.0469484
0.0788509
0.109789
0.137619
0.159581
0.172722
0.173773
0.155516
0.113566
-0.119407
-0.159362
-0.174919
-0.172762
-0.161152
-0.142933
-0.119763
-0.0927815
-0.0625819
-0.0294522
0.00636855
0.0444689
0.0840505
0.123698
0.161132
0.193081
0.215664
0.224072
0.208046
0.160628
-0.188633
-0.232246
-0.243943
-0.233952
-0.213699
-0.187159
-0.156377
-0.122505
-0.0859023
-0.0464765
-0.0040188
0.0415345
0.0898378
0.139825
0.189314
0.234685
0.27107
0.29166
0.281738
0.229771
-0.283979
-0.329309
-0.331836
-0.308284
-0.274713
-0.236444
-0.195768
-0.153614
-0.109844
-0.0637492
-0.0144419
0.0388594
0.0965503
0.158273
0.22237
0.285284
0.341393
0.381571
0.38491
0.33183
-0.419322
-0.459675
-0.442354
-0.395796
-0.342132
-0.287743
-0.234619
-0.182933
-0.131613
-0.0789885
-0.0232176
0.0374718
0.10455
0.178834
0.259858
0.344967
0.428613
0.499696
0.529671
0.485388
-0.620535
-0.636747
-0.57868
-0.494196
-0.411243
-0.335661
-0.267783
-0.20598
-0.147539
-0.089386
-0.0284291
0.0383453
0.113804
0.200469
0.299972
0.412022
0.533026
0.651772
0.732768
0.722392
-0.935927
-0.878518
-0.741744
-0.597951
-0.474395
-0.372662
-0.288871
-0.217765
-0.153956
-0.0924665
-0.0287199
0.041693
0.123261
0.220715
0.338923
0.482152
0.651994
0.841339
1.01527
1.0975
-1.47643
-1.20663
-0.920505
-0.69139
-0.517307
-0.387546
-0.290063
-0.213339
-0.148126
-0.0872178
-0.02458
0.045455
0.128935
0.233068
0.367101
0.542676
0.771291
1.05932
1.40328
1.73014
-2.53965
-1.63055
-1.04444
-0.710961
-0.495753
-0.352095
-0.254533
-0.183585
-0.126171
-0.0735974
-0.0192714
0.0427844
0.11921
0.21878
0.35481
0.547981
0.82639
1.23658
1.91167
2.92419
-4.36667
-2.04464
-0.973544
-0.563183
-0.357848
-0.240149
-0.170121
-0.123785
-0.0874835
-0.0535126
-0.0166569
0.0276582
0.0846049
0.161727
0.272409
0.442096
0.718216
1.22571
2.41103
4.84853
)
;

boundaryField
{
    movingWall
    {
        type            zeroGradient;
    }
    fixedWalls
    {
        type            zeroGradient;
    }
    frontAndBack
    {
        type            empty;
    }
}


// ************************************************************************* //
