/*--------------------------------*- C++ -*----------------------------------*\
| =========                 |                                                 |
| \\      /  F ield         | OpenFOAM: The Open Source CFD Toolbox           |
|  \\    /   O peration     | Version:  2212                                  |
|   \\  /    A nd           | Website:  www.openfoam.com                      |
|    \\/     M anipulation  |                                                 |
\*---------------------------------------------------------------------------*/
FoamFile
{
    version     2.0;
    format      ascii;
    arch        "LSB;label=32;scalar=64";
    class       volScalarField;
    location    "2.46";
    object      p;
}
// * * * * * * * * * * * * * * * * * * * * * * * * * * * * * * * * * * * * * //

dimensions      [0 2 -2 0 0 0 0];

internalField   nonuniform List<scalar> 
400
(
1.92602e-06
-0.00582672
-0.0129649
-0.0184174
-0.0204351
-0.0182415
-0.0117771
-0.00148687
0.0118343
0.0271462
0.0432416
0.0588204
0.0725762
0.083306
0.0900504
0.0922645
0.0900233
0.0842413
0.0768781
0.0710645
0.00577937
-0.000220097
-0.00580619
-0.00954504
-0.0106016
-0.00843554
-0.00297288
0.00547112
0.0162999
0.0287087
0.0417469
0.0543832
0.0655838
0.0744074
0.0801178
0.0823133
0.0810747
0.0770522
0.0712714
0.0653151
0.0133334
0.00503167
-0.000997576
-0.0044256
-0.00527559
-0.00326672
0.00159946
0.00902463
0.0184991
0.0293463
0.0407625
0.0518668
0.0617658
0.0696338
0.0748045
0.0768755
0.075839
0.0720832
0.0658027
0.0575326
0.0201376
0.00869391
0.00122359
-0.00267101
-0.00372478
-0.0018881
0.0027284
0.00978164
0.0187774
0.029092
0.039989
0.0506511
0.0602301
0.0679132
0.0730005
0.0749989
0.0737631
0.0694533
0.0616001
0.0500995
0.0245001
0.00977105
0.000587535
-0.00398934
-0.00530485
-0.00351011
0.00117186
0.00833163
0.017459
0.0279461
0.039082
0.050067
0.060046
0.0681622
0.0736236
0.0757949
0.0743662
0.0692869
0.0595226
0.044534
0.0251759
0.00714794
-0.00380424
-0.00905956
-0.0105147
-0.00850267
-0.00335964
0.00442652
0.0143104
0.0256761
0.0378108
0.0499004
0.0610452
0.0703002
0.0767317
0.079514
0.078136
0.0723306
0.0605363
0.0418869
0.0210914
-0.00026455
-0.0129368
-0.0187117
-0.0200323
-0.0174165
-0.0113211
-0.00232254
0.00898752
0.0219733
0.0359067
0.0499414
0.0631092
0.0743423
0.0825189
0.0865665
0.0857178
0.0794441
0.0656174
0.0430687
0.0111406
-0.0136205
-0.0278774
-0.0338566
-0.0346059
-0.03086
-0.0232155
-0.0123479
0.001102
0.016481
0.0330496
0.0499307
0.0660805
0.080287
0.0911978
0.0974271
0.0978674
0.0916331
0.0758933
0.0491135
-0.00596951
-0.0342689
-0.0498725
-0.055551
-0.0550925
-0.049517
-0.039596
-0.026116
-0.00975986
0.00882016
0.0288981
0.0495906
0.0697947
0.0881517
0.103045
0.112698
0.115548
0.110189
0.0928314
0.0614085
-0.0318596
-0.0638786
-0.0804195
-0.0850097
-0.0824226
-0.0740808
-0.0609834
-0.0440392
-0.0239542
-0.00133964
0.0231428
0.0486582
0.0740928
0.0979695
0.118393
0.133123
0.139986
0.136815
0.118438
0.081931
-0.0686698
-0.104606
-0.121347
-0.123593
-0.117518
-0.105129
-0.0877207
-0.066328
-0.0416395
-0.0141582
0.0156029
0.0469505
0.078853
0.109791
0.137621
0.159583
0.172724
0.173775
0.155518
0.113568
-0.119405
-0.159359
-0.174917
-0.172759
-0.16115
-0.142931
-0.119761
-0.0927794
-0.0625798
-0.0294501
0.00637062
0.0444709
0.0840526
0.1237
0.161134
0.193083
0.215666
0.224075
0.208048
0.16063
-0.188631
-0.232244
-0.243941
-0.23395
-0.213697
-0.187157
-0.156375
-0.122503
-0.0859001
-0.0464744
-0.00401671
0.0415365
0.0898398
0.139827
0.189317
0.234687
0.271072
0.291662
0.28174
0.229774
-0.283977
-0.329307
-0.331834
-0.308282
-0.27471
-0.236442
-0.195766
-0.153612
-0.109842
-0.0637471
-0.0144398
0.0388615
0.0965524
0.158275
0.222372
0.285286
0.341395
0.381573
0.384912
0.331832
-0.41932
-0.459673
-0.442352
-0.395794
-0.34213
-0.287741
-0.234617
-0.182931
-0.131611
-0.0789864
-0.0232154
0.0374739
0.104552
0.178836
0.25986
0.344969
0.428615
0.499699
0.529674
0.48539
-0.620533
-0.636745
-0.578678
-0.494194
-0.411241
-0.335659
-0.267781
-0.205978
-0.147537
-0.0893839
-0.028427
0.0383474
0.113806
0.200471
0.299974
0.412024
0.533028
0.651774
0.732771
0.722395
-0.935925
-0.878516
-0.741742
-0.597949
-0.474393
-0.372659
-0.288869
-0.217763
-0.153954
-0.0924644
-0.0287178
0.0416952
0.123263
0.220718
0.338925
0.482154
0.651996
0.841341
1.01527
1.0975
-1.47642
-1.20663
-0.920503
-0.691388
-0.517305
-0.387544
-0.290061
-0.213337
-0.148124
-0.0872157
-0.0245779
0.0454571
0.128937
0.233071
0.367103
0.542678
0.771293
1.05932
1.40329
1.73014
-2.53965
-1.63055
-1.04444
-0.710959
-0.49575
-0.352093
-0.254531
-0.183583
-0.126169
-0.0735953
-0.0192693
0.0427865
0.119212
0.218782
0.354812
0.547983
0.826392
1.23658
1.91168
2.92419
-4.36666
-2.04463
-0.973542
-0.563181
-0.357846
-0.240147
-0.170119
-0.123783
-0.0874814
-0.0535105
-0.0166548
0.0276603
0.084607
0.161729
0.272411
0.442099
0.718218
1.22571
2.41103
4.84853
)
;

boundaryField
{
    movingWall
    {
        type            zeroGradient;
    }
    fixedWalls
    {
        type            zeroGradient;
    }
    frontAndBack
    {
        type            empty;
    }
}


// ************************************************************************* //
