/*--------------------------------*- C++ -*----------------------------------*\
| =========                 |                                                 |
| \\      /  F ield         | OpenFOAM: The Open Source CFD Toolbox           |
|  \\    /   O peration     | Version:  2212                                  |
|   \\  /    A nd           | Website:  www.openfoam.com                      |
|    \\/     M anipulation  |                                                 |
\*---------------------------------------------------------------------------*/
FoamFile
{
    version     2.0;
    format      ascii;
    arch        "LSB;label=32;scalar=64";
    class       volScalarField;
    location    "2.825";
    object      p;
}
// * * * * * * * * * * * * * * * * * * * * * * * * * * * * * * * * * * * * * //

dimensions      [0 2 -2 0 0 0 0];

internalField   nonuniform List<scalar> 
400
(
1.66467e-06
-0.00582716
-0.0129654
-0.018418
-0.0204356
-0.018242
-0.0117775
-0.00148731
0.0118338
0.0271457
0.0432411
0.0588199
0.0725756
0.0833056
0.0900499
0.0922641
0.0900228
0.0842408
0.0768775
0.0710639
0.00577893
-0.000220552
-0.00580666
-0.00954554
-0.0106022
-0.00843608
-0.00297338
0.00547066
0.0162994
0.0287083
0.0417464
0.0543827
0.0655833
0.0744069
0.0801173
0.0823128
0.0810743
0.0770517
0.0712709
0.0653146
0.0133329
0.0050312
-0.000998025
-0.00442607
-0.0052761
-0.00326727
0.00159891
0.00902412
0.0184986
0.0293459
0.040762
0.0518663
0.0617653
0.0696332
0.0748039
0.076875
0.0758386
0.0720828
0.0658022
0.0575321
0.0201371
0.00869341
0.00122313
-0.00267145
-0.00372525
-0.00188862
0.00272783
0.00978107
0.0187769
0.0290916
0.0399886
0.0506507
0.0602296
0.0679127
0.073
0.0749983
0.0737626
0.0694529
0.0615996
0.0500991
0.0244996
0.00977052
0.000587044
-0.00398979
-0.00530527
-0.00351057
0.00117133
0.00833105
0.0174585
0.0279456
0.0390816
0.0500666
0.0600455
0.0681617
0.073623
0.0757944
0.0743656
0.0692864
0.0595221
0.0445336
0.0251754
0.00714739
-0.00380478
-0.00906005
-0.0105151
-0.00850309
-0.0033601
0.00442598
0.0143098
0.0256755
0.0378103
0.0498999
0.0610447
0.0702998
0.0767312
0.0795135
0.0781355
0.0723301
0.0605358
0.0418865
0.0210909
-0.00026508
-0.0129373
-0.0187122
-0.0200327
-0.0174169
-0.0113215
-0.002323
0.00898698
0.0219727
0.0359061
0.0499409
0.0631088
0.0743419
0.0825185
0.0865661
0.0857173
0.0794436
0.0656169
0.0430681
0.0111401
-0.013621
-0.0278779
-0.0338572
-0.0346065
-0.0308604
-0.0232159
-0.0123483
0.00110154
0.0164805
0.0330491
0.0499301
0.06608
0.0802865
0.0911974
0.0974267
0.0978669
0.0916326
0.0758928
0.049113
-0.00596995
-0.0342693
-0.049873
-0.0555516
-0.0550931
-0.0495176
-0.0395965
-0.0261164
-0.00976027
0.0088197
0.0288976
0.0495901
0.0697941
0.0881512
0.103044
0.112698
0.115547
0.110188
0.0928309
0.061408
-0.0318601
-0.0638791
-0.0804199
-0.0850102
-0.0824232
-0.0740814
-0.0609839
-0.0440396
-0.0239546
-0.00134005
0.0231423
0.0486577
0.0740923
0.0979689
0.118393
0.133123
0.139985
0.136815
0.118437
0.0819305
-0.0686704
-0.104606
-0.121347
-0.123593
-0.117519
-0.10513
-0.0877213
-0.0663285
-0.04164
-0.0141587
0.0156025
0.04695
0.0788525
0.10979
0.137621
0.159582
0.172724
0.173775
0.155517
0.113568
-0.119405
-0.15936
-0.174918
-0.17276
-0.161151
-0.142932
-0.119762
-0.09278
-0.0625804
-0.0294506
0.00637017
0.0444705
0.0840521
0.1237
0.161133
0.193083
0.215665
0.224074
0.208048
0.16063
-0.188631
-0.232245
-0.243941
-0.233951
-0.213697
-0.187157
-0.156375
-0.122504
-0.0859007
-0.0464749
-0.00401722
0.0415361
0.0898394
0.139827
0.189316
0.234686
0.271072
0.291662
0.28174
0.229773
-0.283977
-0.329307
-0.331834
-0.308282
-0.274711
-0.236442
-0.195767
-0.153612
-0.109843
-0.0637476
-0.0144403
0.038861
0.0965519
0.158274
0.222372
0.285285
0.341395
0.381573
0.384912
0.331832
-0.419321
-0.459673
-0.442352
-0.395794
-0.342131
-0.287741
-0.234618
-0.182932
-0.131611
-0.0789869
-0.023216
0.0374733
0.104551
0.178836
0.259859
0.344968
0.428614
0.499698
0.529673
0.485389
-0.620533
-0.636745
-0.578679
-0.494194
-0.411242
-0.33566
-0.267782
-0.205979
-0.147538
-0.0893843
-0.0284275
0.0383469
0.113805
0.20047
0.299974
0.412024
0.533028
0.651774
0.73277
0.722394
-0.935925
-0.878516
-0.741743
-0.597949
-0.474394
-0.37266
-0.288869
-0.217763
-0.153954
-0.0924648
-0.0287183
0.0416947
0.123262
0.220717
0.338925
0.482154
0.651996
0.841341
1.01527
1.0975
-1.47642
-1.20663
-0.920504
-0.691388
-0.517306
-0.387544
-0.290062
-0.213338
-0.148125
-0.0872162
-0.0245784
0.0454567
0.128937
0.23307
0.367102
0.542677
0.771292
1.05932
1.40329
1.73014
-2.53965
-1.63055
-1.04444
-0.710959
-0.495751
-0.352094
-0.254531
-0.183584
-0.12617
-0.0735958
-0.0192698
0.0427861
0.119211
0.218782
0.354811
0.547983
0.826392
1.23658
1.91168
2.92419
-4.36667
-2.04463
-0.973543
-0.563181
-0.357847
-0.240147
-0.17012
-0.123784
-0.0874819
-0.053511
-0.0166553
0.0276598
0.0846065
0.161729
0.27241
0.442098
0.718218
1.22571
2.41103
4.84853
)
;

boundaryField
{
    movingWall
    {
        type            zeroGradient;
    }
    fixedWalls
    {
        type            zeroGradient;
    }
    frontAndBack
    {
        type            empty;
    }
}


// ************************************************************************* //
