/*--------------------------------*- C++ -*----------------------------------*\
| =========                 |                                                 |
| \\      /  F ield         | OpenFOAM: The Open Source CFD Toolbox           |
|  \\    /   O peration     | Version:  2212                                  |
|   \\  /    A nd           | Website:  www.openfoam.com                      |
|    \\/     M anipulation  |                                                 |
\*---------------------------------------------------------------------------*/
FoamFile
{
    version     2.0;
    format      ascii;
    arch        "LSB;label=32;scalar=64";
    class       surfaceScalarField;
    location    "2.97";
    object      phi;
}
// * * * * * * * * * * * * * * * * * * * * * * * * * * * * * * * * * * * * * //

dimensions      [0 3 -1 0 0 0 0];

oriented        oriented;

internalField   nonuniform List<scalar> 
760
(
1.44064e-07
-1.44063e-07
2.68244e-07
-1.2418e-07
2.78992e-07
-1.07482e-08
1.54216e-07
1.24776e-07
-1.40645e-07
2.9486e-07
-6.65363e-07
5.24718e-07
-1.45064e-06
7.85273e-07
-2.4177e-06
9.67063e-07
-3.37722e-06
9.59519e-07
-4.10474e-06
7.27525e-07
-4.43334e-06
3.28598e-07
-4.26677e-06
-1.66574e-07
-3.54302e-06
-7.23744e-07
-2.37044e-06
-1.17258e-06
-9.71596e-07
-1.39884e-06
2.88387e-07
-1.25998e-06
1.02864e-06
-7.40255e-07
9.93068e-07
3.5574e-08
4.4626e-07
5.46808e-07
4.4626e-07
1.05931e-07
-2.49994e-07
4.16428e-08
-5.98917e-08
-3.23288e-07
3.54183e-07
-1.07626e-06
8.77748e-07
-2.26239e-06
1.48099e-06
-3.81067e-06
2.073e-06
-5.48931e-06
2.46391e-06
-6.99884e-06
2.4766e-06
-8.11527e-06
2.07594e-06
-8.7244e-06
1.33666e-06
-8.77662e-06
3.80817e-07
-8.24581e-06
-6.97384e-07
-7.16243e-06
-1.80713e-06
-5.55708e-06
-2.77793e-06
-3.56952e-06
-3.38641e-06
-1.49718e-06
-3.33232e-06
1.4083e-07
-2.37827e-06
8.22144e-07
-6.45739e-07
5.09516e-07
8.59437e-07
9.55776e-07
-1.38757e-07
-1.11237e-07
-6.37771e-07
4.39123e-07
-1.5937e-06
1.31012e-06
-3.04861e-06
2.33265e-06
-4.89213e-06
3.32451e-06
-6.84659e-06
4.02747e-06
-8.60787e-06
4.22518e-06
-9.99285e-06
3.86158e-06
-1.09435e-05
3.02657e-06
-1.1449e-05
1.84221e-06
-1.14624e-05
3.94226e-07
-1.10253e-05
-1.13452e-06
-1.01228e-05
-2.70966e-06
-8.70116e-06
-4.19954e-06
-6.73967e-06
-5.3479e-06
-4.32663e-06
-5.74535e-06
-1.85306e-06
-4.85184e-06
-9.43549e-08
-2.40444e-06
2.88699e-07
4.76383e-07
1.24448e-06
-4.88345e-07
3.77107e-07
-1.51283e-06
1.46361e-06
-3.01119e-06
2.80848e-06
-4.89995e-06
4.22141e-06
-6.93937e-06
5.36393e-06
-8.83493e-06
5.92304e-06
-1.03837e-05
5.77397e-06
-1.15345e-05
5.01239e-06
-1.23108e-05
3.80282e-06
-1.27454e-05
2.27689e-06
-1.28261e-05
4.74863e-07
-1.26031e-05
-1.35748e-06
-1.20432e-05
-3.26954e-06
-1.1045e-05
-5.1978e-06
-9.47824e-06
-6.91465e-06
-7.22021e-06
-8.00339e-06
-4.31213e-06
-7.75992e-06
-1.35616e-06
-5.36041e-06
1.16297e-07
-9.96075e-07
1.36077e-06
-8.27476e-07
1.20458e-06
-2.26784e-06
2.90397e-06
-4.06782e-06
4.60846e-06
-6.04947e-06
6.20306e-06
-7.94654e-06
7.26099e-06
-9.53834e-06
7.51484e-06
-1.07405e-05
6.97616e-06
-1.15726e-05
5.84442e-06
-1.20932e-05
4.32342e-06
-1.23738e-05
2.5575e-06
-1.2501e-05
6.0206e-07
-1.24695e-05
-1.38895e-06
-1.22674e-05
-3.47163e-06
-1.18142e-05
-5.65107e-06
-1.0924e-05
-7.80481e-06
-9.31193e-06
-9.61545e-06
-6.68756e-06
-1.03843e-05
-3.15695e-06
-8.89102e-06
-2.59532e-07
-3.89349e-06
1.10124e-06
-1.03623e-06
2.24081e-06
-2.66546e-06
4.5332e-06
-4.49263e-06
6.43564e-06
-6.29991e-06
8.01033e-06
-7.86915e-06
8.83023e-06
-9.06491e-06
8.7106e-06
-9.87401e-06
7.78526e-06
-1.03558e-05
6.32623e-06
-1.05983e-05
4.56595e-06
-1.07017e-05
2.66082e-06
-1.07861e-05
6.86474e-07
-1.08494e-05
-1.32558e-06
-1.09017e-05
-3.41941e-06
-1.0912e-05
-5.64075e-06
-1.0724e-05
-7.99277e-06
-1.00095e-05
-1.033e-05
-8.28018e-06
-1.21136e-05
-5.13532e-06
-1.20359e-05
-1.13443e-06
-7.89438e-06
-3.31895e-08
-1.05562e-06
3.29643e-06
-2.63822e-06
6.1158e-06
-4.28139e-06
8.0788e-06
-5.7796e-06
9.50855e-06
-6.97431e-06
1.00249e-05
-7.79604e-06
9.53233e-06
-8.27379e-06
8.263e-06
-8.48992e-06
6.54236e-06
-8.5473e-06
4.62332e-06
-8.54593e-06
2.65945e-06
-8.57286e-06
7.13407e-07
-8.65278e-06
-1.24566e-06
-8.80396e-06
-3.26823e-06
-9.03639e-06
-5.40833e-06
-9.28823e-06
-7.74092e-06
-9.32115e-06
-1.02971e-05
-8.61379e-06
-1.28209e-05
-6.42209e-06
-1.42276e-05
-2.36948e-06
-1.1947e-05
-2.40267e-06
-8.88007e-07
4.18444e-06
-2.24496e-06
7.47275e-06
-3.5902e-06
9.42404e-06
-4.74204e-06
1.06604e-05
-5.59762e-06
1.08805e-05
-6.13313e-06
1.00678e-05
-6.39882e-06
8.52869e-06
-6.48273e-06
6.62627e-06
-6.48261e-06
4.62321e-06
-6.47604e-06
2.65287e-06
-6.50416e-06
7.41534e-07
-6.58626e-06
-1.16356e-06
-6.74491e-06
-3.10958e-06
-7.01126e-06
-5.14198e-06
-7.39953e-06
-7.35264e-06
-7.81025e-06
-9.88635e-06
-7.82321e-06
-1.2808e-05
-6.62158e-06
-1.54292e-05
-3.51064e-06
-1.50579e-05
-5.91331e-06
-5.9187e-07
4.77631e-06
-1.61387e-06
8.49476e-06
-2.61689e-06
1.04271e-05
-3.43582e-06
1.14793e-05
-4.01228e-06
1.1457e-05
-4.35119e-06
1.04068e-05
-4.50705e-06
8.68455e-06
-4.55742e-06
6.67664e-06
-4.57713e-06
4.64292e-06
-4.61398e-06
2.68973e-06
-4.68063e-06
8.08176e-07
-4.78391e-06
-1.06028e-06
-4.93558e-06
-2.95792e-06
-5.16653e-06
-4.91103e-06
-5.53373e-06
-6.98544e-06
-6.04631e-06
-9.37377e-06
-6.47123e-06
-1.23831e-05
-6.05779e-06
-1.58427e-05
-3.86942e-06
-1.72463e-05
-9.78273e-06
-2.1915e-07
4.99546e-06
-8.54475e-07
9.13008e-06
-1.50673e-06
1.10793e-05
-2.02239e-06
1.1995e-05
-2.37101e-06
1.18056e-05
-2.57393e-06
1.06097e-05
-2.67787e-06
8.7885e-06
-2.73662e-06
6.73539e-06
-2.79711e-06
4.70341e-06
-2.88349e-06
2.7761e-06
-2.99862e-06
9.23307e-07
-3.14147e-06
-9.17431e-07
-3.31316e-06
-2.78622e-06
-3.52858e-06
-4.6956e-06
-3.84455e-06
-6.66948e-06
-4.3446e-06
-8.87372e-06
-4.96397e-06
-1.17637e-05
-5.08292e-06
-1.57237e-05
-3.5292e-06
-1.88e-05
-1.33119e-05
1.55884e-07
4.83957e-06
-6.77053e-08
9.35367e-06
-3.90615e-07
1.14022e-05
-6.33945e-07
1.22383e-05
-7.81254e-07
1.19529e-05
-8.62363e-07
1.06908e-05
-9.17221e-07
8.84335e-06
-9.79179e-07
6.79734e-06
-1.06595e-06
4.79018e-06
-1.18515e-06
2.89531e-06
-1.33792e-06
1.07607e-06
-1.52538e-06
-7.29969e-07
-1.74662e-06
-2.56498e-06
-2.00175e-06
-4.44047e-06
-2.32349e-06
-6.34774e-06
-2.81244e-06
-8.38476e-06
-3.52619e-06
-1.10499e-05
-4.00819e-06
-1.52417e-05
-3.01359e-06
-1.97946e-05
-1.63255e-05
4.73385e-07
4.36619e-06
6.62131e-07
9.16493e-06
7.02859e-07
1.13615e-05
7.3941e-07
1.22018e-05
7.88791e-07
1.19035e-05
8.23891e-07
1.06557e-05
8.22397e-07
8.84485e-06
7.74715e-07
6.84503e-06
6.82713e-07
4.88218e-06
5.49711e-07
3.02831e-06
3.72631e-07
1.25315e-06
1.45652e-07
-5.02989e-07
-1.33715e-07
-2.28562e-06
-4.72074e-07
-4.10211e-06
-8.7788e-07
-5.94193e-06
-1.40464e-06
-7.858e-06
-2.20114e-06
-1.02534e-05
-2.96207e-06
-1.44808e-05
-2.4657e-06
-2.0291e-05
-1.87912e-05
7.11084e-07
3.65511e-06
1.28184e-06
8.59417e-06
1.6604e-06
1.09829e-05
1.98324e-06
1.18789e-05
2.25663e-06
1.16301e-05
2.44627e-06
1.0466e-05
2.53984e-06
8.75128e-06
2.54678e-06
6.83809e-06
2.48264e-06
4.94632e-06
2.35746e-06
3.15349e-06
2.16677e-06
1.44384e-06
1.89611e-06
-2.32325e-07
1.54374e-06
-1.93325e-06
1.10485e-06
-3.66322e-06
5.73558e-07
-5.41064e-06
-1.07907e-07
-7.17653e-06
-9.86807e-07
-9.37455e-06
-1.9534e-06
-1.35142e-05
-1.94172e-06
-2.03027e-05
-2.07329e-05
8.15493e-07
2.83961e-06
1.70978e-06
7.69988e-06
2.42349e-06
1.02692e-05
3.04799e-06
1.12544e-05
3.58808e-06
1.10901e-05
3.99659e-06
1.00575e-05
4.25311e-06
8.49476e-06
4.36985e-06
6.72135e-06
4.37128e-06
4.94489e-06
4.27494e-06
3.24983e-06
4.08018e-06
1.6386e-06
3.76665e-06
8.11995e-08
3.33465e-06
-1.50125e-06
2.76953e-06
-3.09811e-06
2.06941e-06
-4.71051e-06
1.2479e-06
-6.35502e-06
2.07706e-07
-8.33435e-06
-1.01125e-06
-1.22952e-05
-1.45264e-06
-1.98613e-05
-2.21856e-05
7.52423e-07
2.08719e-06
1.83845e-06
6.61385e-06
2.83849e-06
9.26919e-06
3.78358e-06
1.03093e-05
4.64291e-06
1.02307e-05
5.3473e-06
9.35314e-06
5.85343e-06
7.98862e-06
6.16192e-06
6.41286e-06
6.2947e-06
4.81212e-06
6.27265e-06
3.27187e-06
6.09798e-06
1.81327e-06
5.76022e-06
4.18958e-07
5.23914e-06
-9.80163e-07
4.53359e-06
-2.39256e-06
3.63643e-06
-3.81335e-06
2.57627e-06
-5.29487e-06
1.30415e-06
-7.06223e-06
-2.03752e-07
-1.07874e-05
-9.49889e-07
-1.91151e-05
-2.31355e-05
5.36384e-07
1.55081e-06
1.64784e-06
5.50239e-06
2.92762e-06
7.98941e-06
4.23181e-06
9.00513e-06
5.46442e-06
8.99812e-06
6.52505e-06
8.2925e-06
7.34463e-06
7.16905e-06
7.90751e-06
5.84997e-06
8.22593e-06
4.4937e-06
8.31858e-06
3.17922e-06
8.19299e-06
1.93887e-06
7.84779e-06
7.64155e-07
7.24039e-06
-3.72762e-07
6.38632e-06
-1.5385e-06
5.27275e-06
-2.69977e-06
3.94306e-06
-3.96518e-06
2.45588e-06
-5.57504e-06
8.67909e-07
-9.19938e-06
-1.86509e-07
-1.80607e-05
-2.3322e-05
1.28334e-07
1.42247e-06
9.49033e-07
4.6817e-06
2.35833e-06
6.58011e-06
4.01757e-06
7.34589e-06
5.68894e-06
7.32675e-06
7.18678e-06
6.79466e-06
8.40539e-06
5.95044e-06
9.31244e-06
4.94293e-06
9.90156e-06
3.90458e-06
1.0186e-05
2.89481e-06
1.0171e-05
1.95389e-06
9.86308e-06
1.07203e-06
9.2288e-06
2.61521e-07
8.26991e-06
-5.79602e-07
6.9913e-06
-1.42116e-06
5.44115e-06
-2.41504e-06
3.77515e-06
-3.90904e-06
2.15751e-06
-7.58174e-06
6.20547e-07
-1.65237e-05
-2.27014e-05
-5.00134e-07
1.92261e-06
1.63353e-07
4.01821e-06
1.63618e-06
5.10728e-06
3.61427e-06
5.3678e-06
5.69572e-06
5.24529e-06
7.60045e-06
4.88994e-06
9.18948e-06
4.3614e-06
1.042e-05
3.71241e-06
1.12718e-05
3.05277e-06
1.17626e-05
2.40399e-06
1.18968e-05
1.81975e-06
1.16951e-05
1.27373e-06
1.11726e-05
7.84007e-07
1.03144e-05
2.78622e-07
9.12425e-06
-2.3105e-07
7.66401e-06
-9.54797e-07
6.12226e-06
-2.36729e-06
4.37706e-06
-5.83654e-06
2.02219e-06
-1.41689e-05
-2.06792e-05
-4.16158e-06
6.08418e-06
-3.63752e-06
3.49416e-06
-1.29978e-06
2.76954e-06
1.42351e-06
2.64451e-06
4.08889e-06
2.57991e-06
6.55882e-06
2.42001e-06
8.72555e-06
2.19467e-06
1.05297e-05
1.90821e-06
1.19532e-05
1.62933e-06
1.30209e-05
1.33625e-06
1.37492e-05
1.09144e-06
1.41808e-05
8.42136e-07
1.43064e-05
6.58385e-07
1.41401e-05
4.44965e-07
1.36619e-05
2.47142e-07
1.28868e-05
-1.79691e-07
1.18158e-05
-1.29631e-06
1.00666e-05
-4.08733e-06
5.61896e-06
-9.72123e-06
-1.50603e-05
6.08418e-06
9.57834e-06
1.23479e-05
1.49924e-05
1.75723e-05
1.99923e-05
2.2187e-05
2.40952e-05
2.57245e-05
2.70608e-05
2.81522e-05
2.89944e-05
2.96527e-05
3.00977e-05
3.03449e-05
3.01652e-05
2.88689e-05
2.47815e-05
1.50603e-05
)
;

boundaryField
{
    movingWall
    {
        type            calculated;
        value           uniform 0;
    }
    fixedWalls
    {
        type            calculated;
        value           uniform 0;
    }
    frontAndBack
    {
        type            empty;
        value           nonuniform List<scalar> 0();
    }
}


// ************************************************************************* //
