/*--------------------------------*- C++ -*----------------------------------*\
| =========                 |                                                 |
| \\      /  F ield         | OpenFOAM: The Open Source CFD Toolbox           |
|  \\    /   O peration     | Version:  2212                                  |
|   \\  /    A nd           | Website:  www.openfoam.com                      |
|    \\/     M anipulation  |                                                 |
\*---------------------------------------------------------------------------*/
FoamFile
{
    version     2.0;
    format      ascii;
    arch        "LSB;label=32;scalar=64";
    class       surfaceScalarField;
    location    "0.28";
    object      phi;
}
// * * * * * * * * * * * * * * * * * * * * * * * * * * * * * * * * * * * * * //

dimensions      [0 3 -1 0 0 0 0];

oriented        oriented;

internalField   nonuniform List<scalar> 
760
(
-1.98329e-08
1.98331e-08
-6.80494e-08
4.82165e-08
-1.25585e-07
5.75353e-08
-1.83963e-07
5.83787e-08
-2.40643e-07
5.66796e-08
-2.94504e-07
5.38613e-08
-3.44454e-07
4.99498e-08
-3.89123e-07
4.4669e-08
-4.26803e-07
3.768e-08
-4.55448e-07
2.86449e-08
-4.72739e-07
1.72917e-08
-4.76229e-07
3.48974e-09
-4.6322e-07
-1.3009e-08
-4.31718e-07
-3.15017e-08
-3.8056e-07
-5.11585e-08
-3.10113e-07
-7.04463e-08
-2.23276e-07
-8.68367e-08
-1.2768e-07
-9.55969e-08
-4.13772e-08
-8.63026e-08
-4.13772e-08
-5.0806e-08
7.06391e-08
-1.45808e-07
1.43219e-07
-2.54195e-07
1.65922e-07
-3.63074e-07
1.67257e-07
-4.67494e-07
1.611e-07
-5.64841e-07
1.51208e-07
-6.52836e-07
1.37945e-07
-7.29001e-07
1.20834e-07
-7.90528e-07
9.92067e-08
-8.34252e-07
7.23689e-08
-8.56727e-07
3.97664e-08
-8.54917e-07
1.68084e-09
-8.24521e-07
-4.34055e-08
-7.63388e-07
-9.26338e-08
-6.70272e-07
-1.44275e-07
-5.46343e-07
-1.94375e-07
-3.9675e-07
-2.36431e-07
-2.33784e-07
-2.58562e-07
-8.37916e-08
-2.36295e-07
-1.25169e-07
-6.38927e-08
1.34532e-07
-1.78715e-07
2.58041e-07
-3.0778e-07
2.94987e-07
-4.3658e-07
2.96058e-07
-5.59585e-07
2.84105e-07
-6.73801e-07
2.65424e-07
-7.7664e-07
2.40784e-07
-8.65358e-07
2.09552e-07
-9.36891e-07
1.70739e-07
-9.87814e-07
1.23292e-07
-1.01441e-06
6.63584e-08
-1.01248e-06
-2.44267e-10
-9.78097e-07
-7.7789e-08
-9.07762e-07
-1.62968e-07
-7.99559e-07
-2.52479e-07
-6.54238e-07
-3.39696e-07
-4.7732e-07
-4.13348e-07
-2.82989e-07
-4.52893e-07
-1.02368e-07
-4.16917e-07
-2.27537e-07
-6.88872e-08
2.03419e-07
-1.93e-07
3.82154e-07
-3.32073e-07
4.3406e-07
-4.70654e-07
4.34639e-07
-6.03165e-07
4.16615e-07
-7.26707e-07
3.88967e-07
-8.38787e-07
3.52864e-07
-9.36726e-07
3.07491e-07
-1.01745e-06
2.51469e-07
-1.07738e-06
1.83219e-07
-1.1123e-06
1.01282e-07
-1.11791e-06
5.35766e-09
-1.08811e-06
-1.07589e-07
-1.01831e-06
-2.32766e-07
-9.04592e-07
-3.66195e-07
-7.46003e-07
-4.98285e-07
-5.47526e-07
-6.11826e-07
-3.25349e-07
-6.75069e-07
-1.17047e-07
-6.25219e-07
-3.44584e-07
-7.21187e-08
2.75538e-07
-2.03121e-07
5.13157e-07
-3.50083e-07
5.81021e-07
-4.96771e-07
5.81327e-07
-6.37679e-07
5.57522e-07
-7.7017e-07
5.21458e-07
-8.92036e-07
4.7473e-07
-1.00085e-06
4.16305e-07
-1.09369e-06
3.44304e-07
-1.16688e-06
2.56411e-07
-1.21578e-06
1.50189e-07
-1.2349e-06
2.44697e-08
-1.21677e-06
-1.25719e-07
-1.15377e-06
-2.95767e-07
-1.03864e-06
-4.81326e-07
-8.67067e-07
-6.69854e-07
-6.4235e-07
-8.36543e-07
-3.83245e-07
-9.34174e-07
-1.37157e-07
-8.71306e-07
-4.81742e-07
-7.56387e-08
3.51176e-07
-2.14109e-07
6.51627e-07
-3.69742e-07
7.36654e-07
-5.25493e-07
7.37077e-07
-6.75975e-07
7.08004e-07
-8.18941e-07
6.64424e-07
-9.5264e-07
6.08429e-07
-1.0751e-06
5.38763e-07
-1.18376e-06
4.52962e-07
-1.27508e-06
3.4773e-07
-1.3441e-06
2.19217e-07
-1.38388e-06
6.42513e-08
-1.38551e-06
-1.24089e-07
-1.3369e-06
-3.44382e-07
-1.22548e-06
-5.92748e-07
-1.04085e-06
-8.54484e-07
-7.82045e-07
-1.09534e-06
-4.7022e-07
-1.246e-06
-1.67652e-07
-1.17387e-06
-6.49394e-07
-7.99311e-08
4.31107e-07
-2.27272e-07
7.98968e-07
-3.93071e-07
9.02453e-07
-5.59334e-07
9.03339e-07
-7.20855e-07
8.69525e-07
-8.7592e-07
8.19489e-07
-1.02345e-06
7.55961e-07
-1.16223e-06
6.77539e-07
-1.29042e-06
5.81152e-07
-1.40503e-06
4.62343e-07
-1.50116e-06
3.15349e-07
-1.57098e-06
1.3407e-07
-1.60377e-06
-9.13026e-08
-1.58182e-06
-3.66328e-07
-1.4847e-06
-6.89867e-07
-1.29135e-06
-1.04783e-06
-9.91071e-07
-1.39563e-06
-6.04617e-07
-1.63245e-06
-2.15619e-07
-1.56287e-06
-8.65013e-07
-8.51099e-08
5.16217e-07
-2.42909e-07
9.56768e-07
-4.20407e-07
1.07995e-06
-5.98463e-07
1.0814e-06
-7.72119e-07
1.04318e-06
-9.40375e-07
9.87745e-07
-1.10311e-06
9.18692e-07
-1.26023e-06
8.34665e-07
-1.4112e-06
7.32123e-07
-1.5543e-06
6.05435e-07
-1.68555e-06
4.46602e-07
-1.79704e-06
2.45563e-07
-1.87754e-06
-1.08037e-08
-1.90254e-06
-3.41325e-07
-1.84118e-06
-7.51226e-07
-1.65481e-06
-1.23421e-06
-1.31204e-06
-1.7384e-06
-8.2319e-07
-2.1213e-06
-2.97661e-07
-2.0884e-06
-1.16267e-06
-9.13087e-08
6.07526e-07
-2.61268e-07
1.12673e-06
-4.51884e-07
1.27057e-06
-6.42623e-07
1.27213e-06
-8.28857e-07
1.22941e-06
-1.01051e-06
1.1694e-06
-1.18873e-06
1.09691e-06
-1.36504e-06
1.01098e-06
-1.54091e-06
9.07992e-07
-1.71696e-06
7.81485e-07
-1.89172e-06
6.21364e-07
-2.05921e-06
4.13047e-07
-2.20876e-06
1.38753e-07
-2.3134e-06
-2.36686e-07
-2.32872e-06
-7.35909e-07
-2.19032e-06
-1.3726e-06
-1.82606e-06
-2.10266e-06
-1.20718e-06
-2.74019e-06
-4.57275e-07
-2.8383e-06
-1.61995e-06
-9.88629e-08
7.06389e-07
-2.82958e-07
1.31082e-06
-4.88021e-07
1.47563e-06
-6.91834e-07
1.47595e-06
-8.90215e-07
1.4278e-06
-1.08425e-06
1.36343e-06
-1.27666e-06
1.28932e-06
-1.4711e-06
1.20543e-06
-1.67184e-06
1.10872e-06
-1.88321e-06
9.92855e-07
-2.10854e-06
8.46694e-07
-2.34763e-06
6.52138e-07
-2.59144e-06
3.82568e-07
-2.82491e-06
-3.21387e-09
-2.98956e-06
-5.7126e-07
-2.99121e-06
-1.37096e-06
-2.68267e-06
-2.4112e-06
-1.92601e-06
-3.49684e-06
-7.98627e-07
-3.96569e-06
-2.41858e-06
-1.08495e-07
8.14884e-07
-3.09306e-07
1.51163e-06
-5.30156e-07
1.69648e-06
-7.46849e-07
1.69264e-06
-9.55859e-07
1.63681e-06
-1.15969e-06
1.56726e-06
-1.36292e-06
1.49255e-06
-1.57166e-06
1.41417e-06
-1.79363e-06
1.33069e-06
-2.03826e-06
1.23748e-06
-2.31635e-06
1.12479e-06
-2.63854e-06
9.7433e-07
-3.01057e-06
7.54597e-07
-3.42825e-06
4.14461e-07
-3.85858e-06
-1.40923e-07
-4.17054e-06
-1.05901e-06
-4.08891e-06
-2.49283e-06
-3.23118e-06
-4.35457e-06
-1.4939e-06
-5.70296e-06
-3.91248e-06
-1.21603e-07
9.36487e-07
-3.42859e-07
1.73289e-06
-5.80994e-07
1.93461e-06
-8.09666e-07
1.92131e-06
-1.02647e-06
1.85361e-06
-1.23568e-06
1.77647e-06
-1.44385e-06
1.70072e-06
-1.65955e-06
1.62987e-06
-1.8941e-06
1.56525e-06
-2.16283e-06
1.50621e-06
-2.48645e-06
1.4484e-06
-2.89209e-06
1.37997e-06
-3.41266e-06
1.27518e-06
-4.0787e-06
1.0805e-06
-4.89842e-06
6.78795e-07
-5.72848e-06
-2.28949e-07
-6.07155e-06
-2.14976e-06
-5.15855e-06
-5.26757e-06
-2.61727e-06
-8.24424e-06
-6.52975e-06
-1.40752e-07
1.07724e-06
-3.8817e-07
1.98031e-06
-6.45374e-07
2.19182e-06
-8.84145e-07
2.16008e-06
-1.1043e-06
2.07377e-06
-1.31247e-06
1.98463e-06
-1.51706e-06
1.90532e-06
-1.72851e-06
1.84131e-06
-1.96085e-06
1.79759e-06
-2.23454e-06
1.7799e-06
-2.58053e-06
1.79439e-06
-3.04574e-06
1.84518e-06
-3.6982e-06
1.92763e-06
-4.62435e-06
2.00665e-06
-5.86029e-06
1.91474e-06
-7.20823e-06
1.11899e-06
-7.93323e-06
-1.42477e-06
-6.9625e-06
-6.2383e-06
-3.83299e-06
-1.13737e-05
-1.03627e-05
-1.70743e-07
1.24798e-06
-4.53168e-07
2.26273e-06
-7.31195e-07
2.46984e-06
-9.76519e-07
2.40541e-06
-1.1936e-06
2.29085e-06
-1.39235e-06
2.18338e-06
-1.58268e-06
2.09565e-06
-1.77539e-06
2.03402e-06
-1.98471e-06
2.00691e-06
-2.23254e-06
2.02773e-06
-2.55536e-06
2.11721e-06
-3.01388e-06
2.3037e-06
-3.7007e-06
2.61445e-06
-4.72417e-06
3.03013e-06
-6.113e-06
3.30357e-06
-7.56747e-06
2.57347e-06
-8.27441e-06
-7.17838e-07
-7.40954e-06
-7.10317e-06
-4.47412e-06
-1.43092e-05
-1.48369e-05
-2.1978e-07
1.46776e-06
-5.51701e-07
2.59465e-06
-8.5266e-07
2.7708e-06
-1.09709e-06
2.64984e-06
-1.3011e-06
2.49485e-06
-1.48004e-06
2.36232e-06
-1.64429e-06
2.2599e-06
-1.80235e-06
2.19209e-06
-1.96416e-06
2.16872e-06
-2.14567e-06
2.20924e-06
-2.37633e-06
2.34787e-06
-2.70966e-06
2.63703e-06
-3.22696e-06
3.13175e-06
-4.0016e-06
3.80476e-06
-4.99493e-06
4.29689e-06
-5.97132e-06
3.54986e-06
-6.43555e-06
-2.53603e-07
-6.10211e-06
-7.43661e-06
-4.14465e-06
-1.62666e-05
-1.89815e-05
-3.05891e-07
1.77365e-06
-7.05421e-07
2.99418e-06
-1.01954e-06
3.08492e-06
-1.2509e-06
2.8812e-06
-1.43099e-06
2.67494e-06
-1.57999e-06
2.51132e-06
-1.70729e-06
2.3872e-06
-1.81601e-06
2.30081e-06
-1.90668e-06
2.25939e-06
-1.9797e-06
2.28226e-06
-2.04006e-06
2.40823e-06
-2.10213e-06
2.69911e-06
-2.19038e-06
3.22e-06
-2.32466e-06
3.93905e-06
-2.49259e-06
4.46481e-06
-2.65995e-06
3.71722e-06
-3.12314e-06
2.09582e-07
-3.41641e-06
-7.14334e-06
-2.90729e-06
-1.67757e-05
-2.18888e-05
-4.6891e-07
2.24256e-06
-1.00409e-06
3.52936e-06
-1.30928e-06
3.39011e-06
-1.47448e-06
3.0464e-06
-1.59602e-06
2.79649e-06
-1.69517e-06
2.61047e-06
-1.76849e-06
2.46052e-06
-1.80662e-06
2.33895e-06
-1.79942e-06
2.25219e-06
-1.72843e-06
2.21127e-06
-1.57047e-06
2.25027e-06
-1.28906e-06
2.41769e-06
-8.30525e-07
2.76147e-06
-1.84556e-07
3.29308e-06
5.05373e-07
3.77488e-06
9.17856e-07
3.30474e-06
7.70675e-07
3.56763e-07
-2.71223e-07
-6.10144e-06
-7.79855e-07
-1.62671e-05
-2.26687e-05
-4.5004e-07
2.6926e-06
-1.11285e-06
4.19217e-06
-1.52399e-06
3.80125e-06
-1.73923e-06
3.26164e-06
-1.8098e-06
2.86706e-06
-1.78354e-06
2.58421e-06
-1.68208e-06
2.35906e-06
-1.50989e-06
2.16675e-06
-1.27522e-06
2.01752e-06
-9.57839e-07
1.89389e-06
-5.34716e-07
1.82715e-06
6.98785e-08
1.8131e-06
8.8206e-07
1.94928e-06
1.99236e-06
2.18278e-06
3.33167e-06
2.43557e-06
4.48283e-06
2.15358e-06
4.69974e-06
1.39852e-07
3.54597e-06
-4.94767e-06
1.61939e-06
-1.43405e-05
-2.10493e-05
-3.90135e-06
6.59395e-06
-3.74861e-06
4.03943e-06
-2.65402e-06
2.70666e-06
-1.60331e-06
2.21093e-06
-6.39967e-07
1.90372e-06
2.9088e-07
1.65336e-06
1.19295e-06
1.45699e-06
2.07163e-06
1.28808e-06
2.91759e-06
1.17156e-06
3.75055e-06
1.06093e-06
4.57235e-06
1.00535e-06
5.42263e-06
9.62817e-07
6.35707e-06
1.01485e-06
7.44574e-06
1.09411e-06
8.80688e-06
1.07443e-06
1.01713e-05
7.8917e-07
1.06524e-05
-3.41258e-07
9.80401e-06
-4.09927e-06
5.57184e-06
-1.01084e-05
-1.54774e-05
6.59395e-06
1.06334e-05
1.334e-05
1.5551e-05
1.74547e-05
1.9108e-05
2.0565e-05
2.18531e-05
2.30247e-05
2.40856e-05
2.50909e-05
2.60538e-05
2.70686e-05
2.81627e-05
2.92371e-05
3.00263e-05
2.96851e-05
2.55858e-05
1.54774e-05
)
;

boundaryField
{
    movingWall
    {
        type            calculated;
        value           uniform 0;
    }
    fixedWalls
    {
        type            calculated;
        value           uniform 0;
    }
    frontAndBack
    {
        type            empty;
        value           nonuniform List<scalar> 0();
    }
}


// ************************************************************************* //
