/*--------------------------------*- C++ -*----------------------------------*\
| =========                 |                                                 |
| \\      /  F ield         | OpenFOAM: The Open Source CFD Toolbox           |
|  \\    /   O peration     | Version:  2212                                  |
|   \\  /    A nd           | Website:  www.openfoam.com                      |
|    \\/     M anipulation  |                                                 |
\*---------------------------------------------------------------------------*/
FoamFile
{
    version     2.0;
    format      ascii;
    arch        "LSB;label=32;scalar=64";
    class       volScalarField;
    location    "1.925";
    object      p;
}
// * * * * * * * * * * * * * * * * * * * * * * * * * * * * * * * * * * * * * //

dimensions      [0 2 -2 0 0 0 0];

internalField   nonuniform List<scalar> 
400
(
2.39509e-06
-0.00582592
-0.0129641
-0.0184166
-0.0204343
-0.0182407
-0.0117761
-0.00148589
0.0118352
0.0271471
0.0432424
0.0588212
0.072577
0.0833069
0.0900513
0.0922655
0.0900243
0.0842422
0.0768789
0.0710653
0.00578016
-0.000219224
-0.0058053
-0.00954418
-0.0106008
-0.00843472
-0.00297202
0.00547204
0.0163008
0.0287097
0.0417478
0.0543841
0.0655846
0.0744083
0.0801187
0.0823142
0.0810757
0.0770531
0.0712723
0.0653159
0.0133342
0.00503255
-0.000996653
-0.00442468
-0.00527472
-0.00326591
0.00160026
0.00902547
0.0185
0.0293473
0.0407635
0.0518677
0.0617667
0.0696346
0.0748053
0.0768764
0.0758399
0.0720842
0.0658036
0.0575335
0.0201384
0.00869477
0.00122451
-0.00267006
-0.00372385
-0.00188724
0.0027292
0.00978242
0.0187782
0.029093
0.03999
0.0506521
0.060231
0.0679141
0.0730013
0.0749997
0.073764
0.0694543
0.061601
0.0501005
0.024501
0.00977188
0.000588406
-0.0039884
-0.00530387
-0.00350916
0.00117272
0.00833241
0.0174598
0.0279469
0.039083
0.050068
0.060047
0.0681631
0.0736244
0.0757957
0.074367
0.0692878
0.0595235
0.044535
0.0251768
0.00714876
-0.00380343
-0.00905869
-0.0105137
-0.00850168
-0.00335869
0.00442737
0.0143112
0.0256768
0.0378117
0.0499013
0.0610461
0.0703012
0.0767327
0.0795149
0.0781368
0.0723315
0.0605372
0.0418878
0.0210923
-0.000263695
-0.012936
-0.0187108
-0.0200314
-0.0174155
-0.0113201
-0.00232159
0.00898837
0.021974
0.0359075
0.0499423
0.0631101
0.0743433
0.0825199
0.0865675
0.0857186
0.079445
0.0656182
0.0430695
0.0111416
-0.0136196
-0.0278766
-0.0338558
-0.0346051
-0.0308591
-0.0232145
-0.0123469
0.00110295
0.0164818
0.0330504
0.0499315
0.0660813
0.0802879
0.0911988
0.0974281
0.0978683
0.091634
0.0758942
0.0491144
-0.00596855
-0.0342679
-0.0498716
-0.0555502
-0.0550918
-0.0495162
-0.0395951
-0.026115
-0.00975885
0.00882112
0.028899
0.0495914
0.0697954
0.0881525
0.103046
0.112699
0.115549
0.11019
0.0928323
0.0614094
-0.0318587
-0.0638777
-0.0804185
-0.0850088
-0.0824218
-0.07408
-0.0609826
-0.0440383
-0.0239532
-0.00133863
0.0231438
0.0486591
0.0740936
0.0979703
0.118394
0.133124
0.139987
0.136816
0.118439
0.0819319
-0.068669
-0.104605
-0.121346
-0.123592
-0.117517
-0.105128
-0.08772
-0.0663272
-0.0416386
-0.0141573
0.0156039
0.0469514
0.0788539
0.109792
0.137622
0.159584
0.172725
0.173776
0.155519
0.113569
-0.119404
-0.159359
-0.174916
-0.172758
-0.161149
-0.14293
-0.119761
-0.0927787
-0.062579
-0.0294492
0.00637157
0.0444719
0.0840535
0.123701
0.161135
0.193084
0.215666
0.224075
0.208049
0.160631
-0.18863
-0.232243
-0.24394
-0.233949
-0.213696
-0.187156
-0.156374
-0.122503
-0.0858994
-0.0464736
-0.00401585
0.0415375
0.0898408
0.139828
0.189318
0.234688
0.271073
0.291663
0.281741
0.229774
-0.283976
-0.329306
-0.331833
-0.308281
-0.274709
-0.236441
-0.195765
-0.153611
-0.109841
-0.0637463
-0.014439
0.0388624
0.0965533
0.158276
0.222373
0.285287
0.341396
0.381574
0.384913
0.331833
-0.419319
-0.459672
-0.442351
-0.395793
-0.34213
-0.28774
-0.234616
-0.18293
-0.13161
-0.0789855
-0.0232146
0.0374747
0.104553
0.178837
0.259861
0.34497
0.428616
0.499699
0.529674
0.485391
-0.620532
-0.636744
-0.578677
-0.494193
-0.411241
-0.335658
-0.26778
-0.205977
-0.147536
-0.0893829
-0.0284261
0.0383482
0.113807
0.200472
0.299975
0.412025
0.533029
0.651775
0.732771
0.722395
-0.935924
-0.878515
-0.741741
-0.597948
-0.474392
-0.372659
-0.288868
-0.217762
-0.153953
-0.0924634
-0.0287169
0.0416961
0.123264
0.220718
0.338926
0.482155
0.651997
0.841342
1.01527
1.0975
-1.47642
-1.20663
-0.920502
-0.691387
-0.517304
-0.387543
-0.29006
-0.213336
-0.148123
-0.0872148
-0.024577
0.0454581
0.128938
0.233071
0.367104
0.542679
0.771294
1.05932
1.40329
1.73014
-2.53965
-1.63055
-1.04444
-0.710958
-0.49575
-0.352092
-0.25453
-0.183582
-0.126168
-0.0735945
-0.0192684
0.0427874
0.119213
0.218783
0.354813
0.547984
0.826393
1.23658
1.91168
2.92419
-4.36666
-2.04463
-0.973541
-0.56318
-0.357845
-0.240146
-0.170118
-0.123782
-0.0874806
-0.0535097
-0.0166539
0.0276611
0.0846079
0.16173
0.272412
0.442099
0.718219
1.22571
2.41104
4.84853
)
;

boundaryField
{
    movingWall
    {
        type            zeroGradient;
    }
    fixedWalls
    {
        type            zeroGradient;
    }
    frontAndBack
    {
        type            empty;
    }
}


// ************************************************************************* //
