/*--------------------------------*- C++ -*----------------------------------*\
| =========                 |                                                 |
| \\      /  F ield         | OpenFOAM: The Open Source CFD Toolbox           |
|  \\    /   O peration     | Version:  2212                                  |
|   \\  /    A nd           | Website:  www.openfoam.com                      |
|    \\/     M anipulation  |                                                 |
\*---------------------------------------------------------------------------*/
FoamFile
{
    version     2.0;
    format      ascii;
    arch        "LSB;label=32;scalar=64";
    class       surfaceScalarField;
    location    "3.815";
    object      phi;
}
// * * * * * * * * * * * * * * * * * * * * * * * * * * * * * * * * * * * * * //

dimensions      [0 3 -1 0 0 0 0];

oriented        oriented;

internalField   nonuniform List<scalar> 
760
(
1.52588e-07
-1.52611e-07
2.86179e-07
-1.3359e-07
3.0085e-07
-1.46713e-08
1.74852e-07
1.25998e-07
-1.26612e-07
3.01464e-07
-6.66149e-07
5.39538e-07
-1.47528e-06
8.09135e-07
-2.4692e-06
9.93912e-07
-3.44975e-06
9.80558e-07
-4.18658e-06
7.36827e-07
-4.51279e-06
3.26207e-07
-4.33153e-06
-1.81262e-07
-3.58464e-06
-7.46882e-07
-2.38425e-06
-1.20039e-06
-9.5789e-07
-1.42636e-06
3.22482e-07
-1.28037e-06
1.06694e-06
-7.44462e-07
1.01932e-06
4.7626e-08
4.56169e-07
5.63149e-07
4.56169e-07
1.19243e-07
-2.71854e-07
6.4396e-08
-7.8743e-08
-3.0576e-07
3.55485e-07
-1.07956e-06
8.99796e-07
-2.30166e-06
1.52356e-06
-3.89386e-06
2.13174e-06
-5.6109e-06
2.52617e-06
-7.1438e-06
2.52681e-06
-8.2687e-06
2.10545e-06
-8.87499e-06
1.34312e-06
-8.91502e-06
3.66232e-07
-8.36537e-06
-7.30908e-07
-7.257e-06
-1.85525e-06
-5.62185e-06
-2.83554e-06
-3.60212e-06
-3.44609e-06
-1.49979e-06
-3.3827e-06
1.60882e-07
-2.40513e-06
8.44484e-07
-6.35975e-07
5.1984e-07
8.87794e-07
9.76009e-07
-1.31488e-07
-1.40366e-07
-6.36446e-07
4.26216e-07
-1.61764e-06
1.33668e-06
-3.11583e-06
2.39798e-06
-5.00906e-06
3.41679e-06
-7.00409e-06
4.12678e-06
-8.78929e-06
4.31138e-06
-1.01843e-05
3.92185e-06
-1.11363e-05
3.05746e-06
-1.16373e-05
1.84406e-06
-1.16372e-05
3.66112e-07
-1.11861e-05
-1.18196e-06
-1.02653e-05
-2.77612e-06
-8.82014e-06
-4.28066e-06
-6.83013e-06
-5.4361e-06
-4.38312e-06
-5.82971e-06
-1.87533e-06
-4.91292e-06
-9.20033e-08
-2.4193e-06
2.92067e-07
5.03724e-07
1.26808e-06
-4.977e-07
3.57334e-07
-1.54746e-06
1.47598e-06
-3.08854e-06
2.87777e-06
-5.02687e-06
4.33631e-06
-7.10801e-06
5.49793e-06
-9.02839e-06
6.04716e-06
-1.05863e-05
5.86932e-06
-1.17376e-05
5.07316e-06
-1.25096e-05
3.82946e-06
-1.29371e-05
2.27157e-06
-1.30065e-05
4.35455e-07
-1.27734e-05
-1.41499e-06
-1.22009e-05
-3.34863e-06
-1.11869e-05
-5.29468e-06
-9.60007e-06
-7.02293e-06
-7.31588e-06
-8.11389e-06
-4.37258e-06
-7.85622e-06
-1.37409e-06
-5.4178e-06
1.18274e-07
-9.88635e-07
1.38635e-06
-8.52094e-07
1.20943e-06
-2.33387e-06
2.95776e-06
-4.18191e-06
4.7258e-06
-6.20581e-06
6.36021e-06
-8.12901e-06
7.42113e-06
-9.73011e-06
7.64826e-06
-1.09309e-05
7.07008e-06
-1.17565e-05
5.89875e-06
-1.22685e-05
4.34154e-06
-1.25402e-05
2.54326e-06
-1.26617e-05
5.5692e-07
-1.26221e-05
-1.45458e-06
-1.24112e-05
-3.5595e-06
-1.19491e-05
-5.75681e-06
-1.10489e-05
-7.92318e-06
-9.42287e-06
-9.73989e-06
-6.77403e-06
-1.05051e-05
-3.20243e-06
-8.9894e-06
-2.6225e-07
-3.92881e-06
1.1241e-06
-1.07134e-06
2.28077e-06
-2.74685e-06
4.63327e-06
-4.61731e-06
6.59626e-06
-6.45481e-06
8.19771e-06
-8.03733e-06
9.00365e-06
-9.23309e-06
8.84402e-06
-1.00359e-05
7.87289e-06
-1.05098e-05
6.37264e-06
-1.07452e-05
4.57693e-06
-1.08429e-05
2.64097e-06
-1.09247e-05
6.3869e-07
-1.09809e-05
-1.39831e-06
-1.10256e-05
-3.51479e-06
-1.10283e-05
-5.75413e-06
-1.08335e-05
-8.11803e-06
-1.01127e-05
-1.04606e-05
-8.37349e-06
-1.22443e-05
-5.20468e-06
-1.21582e-05
-1.15154e-06
-7.98196e-06
-2.74357e-08
-1.09287e-06
3.37364e-06
-2.71852e-06
6.25892e-06
-4.39567e-06
8.27341e-06
-5.91442e-06
9.71646e-06
-7.11543e-06
1.02047e-05
-7.93456e-06
9.66315e-06
-8.40729e-06
8.34562e-06
-8.61979e-06
6.58513e-06
-8.67621e-06
4.63335e-06
-8.67554e-06
2.64029e-06
-8.70275e-06
6.65904e-07
-8.77848e-06
-1.32257e-06
-8.92199e-06
-3.37128e-06
-9.14358e-06
-5.53253e-06
-9.38373e-06
-7.87789e-06
-9.40759e-06
-1.04368e-05
-8.69466e-06
-1.29572e-05
-6.49209e-06
-1.43608e-05
-2.40431e-06
-1.20697e-05
-2.43174e-06
-9.19565e-07
4.2932e-06
-2.31184e-06
7.65119e-06
-3.68239e-06
9.64397e-06
-4.84816e-06
1.08822e-05
-5.70779e-06
1.10643e-05
-6.24249e-06
1.01978e-05
-6.50753e-06
8.61066e-06
-6.59349e-06
6.67109e-06
-6.59789e-06
4.63775e-06
-6.59609e-06
2.6385e-06
-6.62648e-06
6.96285e-07
-6.70727e-06
-1.24178e-06
-6.86012e-06
-3.21844e-06
-7.11534e-06
-5.27731e-06
-7.48805e-06
-7.50517e-06
-7.88279e-06
-1.0042e-05
-7.88504e-06
-1.2955e-05
-6.67751e-06
-1.55683e-05
-3.55784e-06
-1.51894e-05
-5.98958e-06
-6.13193e-07
4.9064e-06
-1.66095e-06
8.69895e-06
-2.68173e-06
1.06647e-05
-3.51058e-06
1.17111e-05
-4.09115e-06
1.16448e-05
-4.43203e-06
1.05387e-05
-4.59088e-06
8.7695e-06
-4.64629e-06
6.72651e-06
-4.67205e-06
4.6635e-06
-4.71385e-06
2.6803e-06
-4.78307e-06
7.65502e-07
-4.8869e-06
-1.13794e-06
-5.03601e-06
-3.06933e-06
-5.25982e-06
-5.05351e-06
-5.6134e-06
-7.15159e-06
-6.10745e-06
-9.54799e-06
-6.51704e-06
-1.25454e-05
-6.09742e-06
-1.59879e-05
-3.90141e-06
-1.73854e-05
-9.89099e-06
-2.27e-07
5.13339e-06
-8.78111e-07
9.35006e-06
-1.54154e-06
1.13282e-05
-2.06413e-06
1.22337e-05
-2.41724e-06
1.1998e-05
-2.6243e-06
1.07458e-05
-2.73312e-06
8.87833e-06
-2.79735e-06
6.79073e-06
-2.86285e-06
4.72901e-06
-2.9527e-06
2.77014e-06
-3.06986e-06
8.82659e-07
-3.21427e-06
-9.93529e-07
-3.38673e-06
-2.89688e-06
-3.60056e-06
-4.83967e-06
-3.90877e-06
-6.84338e-06
-4.393e-06
-9.06377e-06
-4.99482e-06
-1.19436e-05
-5.10499e-06
-1.58778e-05
-3.54564e-06
-1.89448e-05
-1.34366e-05
1.62091e-07
4.9713e-06
-6.73583e-08
9.57951e-06
-3.96061e-07
1.16569e-05
-6.43372e-07
1.2481e-05
-7.94486e-07
1.21491e-05
-8.80157e-07
1.08315e-05
-9.40069e-07
8.93824e-06
-1.00652e-06
6.85719e-06
-1.09658e-06
4.81907e-06
-1.21788e-06
2.89145e-06
-1.37244e-06
1.03722e-06
-1.56228e-06
-8.03689e-07
-1.78656e-06
-2.6726e-06
-2.04439e-06
-4.58184e-06
-2.36543e-06
-6.52234e-06
-2.84496e-06
-8.58424e-06
-3.54354e-06
-1.1245e-05
-4.01694e-06
-1.54044e-05
-3.02015e-06
-1.99416e-05
-1.64568e-05
4.93167e-07
4.47814e-06
6.88781e-07
9.38389e-06
7.31365e-07
1.16143e-05
7.67094e-07
1.24453e-05
8.12866e-07
1.21033e-05
8.42766e-07
1.08016e-05
8.36328e-07
8.94468e-06
7.84976e-07
6.90854e-06
6.90692e-07
4.91335e-06
5.55827e-07
3.02631e-06
3.76291e-07
1.21675e-06
1.45926e-07
-5.73323e-07
-1.3776e-07
-2.38891e-06
-4.81308e-07
-4.23829e-06
-8.912e-07
-6.11245e-06
-1.41575e-06
-8.05969e-06
-2.20228e-06
-1.04584e-05
-2.95688e-06
-1.46498e-05
-2.46263e-06
-2.04358e-05
-1.89194e-05
7.4315e-07
3.73499e-06
1.333e-06
8.79404e-06
1.72109e-06
1.12262e-05
2.04744e-06
1.21189e-05
2.31878e-06
1.1832e-05
2.5037e-06
1.06166e-05
2.59291e-06
8.85547e-06
2.59706e-06
6.90438e-06
2.53118e-06
4.97923e-06
2.40396e-06
3.15354e-06
2.2095e-06
1.41121e-06
1.93392e-06
-2.97736e-07
1.57583e-06
-2.03082e-06
1.13015e-06
-3.79262e-06
5.91328e-07
-5.57362e-06
-9.50906e-08
-7.37327e-06
-9.69751e-07
-9.58378e-06
-1.93334e-06
-1.36862e-05
-1.93197e-06
-2.04372e-05
-2.08514e-05
8.54522e-07
2.88046e-06
1.7806e-06
7.86797e-06
2.51336e-06
1.04934e-05
3.14775e-06
1.14845e-05
3.69045e-06
1.12893e-05
4.09711e-06
1.021e-05
4.35069e-06
8.60189e-06
4.46511e-06
6.78996e-06
4.46459e-06
4.97976e-06
4.36578e-06
3.25235e-06
4.16764e-06
1.60935e-06
3.84436e-06
2.55487e-08
3.40584e-06
-1.59231e-06
2.83166e-06
-3.21844e-06
2.12077e-06
-4.86273e-06
1.28891e-06
-6.54141e-06
2.4254e-07
-8.53741e-06
-9.79468e-07
-1.24642e-05
-1.43734e-06
-1.99793e-05
-2.22887e-05
7.90584e-07
2.08988e-06
1.92003e-06
6.73852e-06
2.94946e-06
9.46402e-06
3.91275e-06
1.05212e-05
4.78167e-06
1.04203e-05
5.48934e-06
9.50231e-06
5.99567e-06
8.09556e-06
6.30347e-06
6.48216e-06
6.43485e-06
4.84838e-06
6.40978e-06
3.27741e-06
6.2289e-06
1.79024e-06
5.885e-06
3.69444e-07
5.3534e-06
-1.0607e-06
4.63554e-06
-2.50059e-06
3.72354e-06
-3.95073e-06
2.6453e-06
-5.46317e-06
1.35617e-06
-7.24828e-06
-1.73143e-07
-1.09349e-05
-9.27026e-07
-1.92254e-05
-2.32157e-05
5.65623e-07
1.52426e-06
1.72703e-06
5.57712e-06
3.04801e-06
8.14304e-06
4.38403e-06
9.1852e-06
5.63788e-06
9.16649e-06
6.71054e-06
8.42965e-06
7.53592e-06
7.27019e-06
8.10109e-06
5.91699e-06
8.41922e-06
4.53024e-06
8.50867e-06
3.18797e-06
8.37688e-06
1.92203e-06
8.02222e-06
7.24107e-07
7.40165e-06
-4.40139e-07
6.53107e-06
-1.63e-06
5.39727e-06
-2.81693e-06
4.04141e-06
-4.10731e-06
2.52918e-06
-5.73605e-06
9.2523e-07
-9.3309e-06
-1.59185e-07
-1.8141e-05
-2.33749e-05
1.45314e-07
1.37895e-06
1.01398e-06
4.70845e-06
2.47166e-06
6.68536e-06
4.17479e-06
7.48207e-06
5.88016e-06
7.46112e-06
7.40084e-06
6.90896e-06
8.63369e-06
6.03734e-06
9.54885e-06
5.00183e-06
1.01417e-05
3.93741e-06
1.04252e-05
2.9045e-06
1.04056e-05
1.94156e-06
1.00894e-05
1.04029e-06
9.43593e-06
2.1337e-07
8.45862e-06
-6.52691e-07
7.15313e-06
-1.51144e-06
5.56908e-06
-2.52325e-06
3.86389e-06
-4.03087e-06
2.21224e-06
-7.67925e-06
6.42139e-07
-1.65709e-05
-2.27328e-05
-5.12163e-07
1.89111e-06
1.91025e-07
4.00526e-06
1.72405e-06
5.15234e-06
3.76342e-06
5.44269e-06
5.89652e-06
5.32802e-06
7.83907e-06
4.96641e-06
9.4542e-06
4.4222e-06
1.07008e-05
3.75521e-06
1.15613e-05
3.07691e-06
1.20532e-05
2.41257e-06
1.21813e-05
1.81349e-06
1.19661e-05
1.25549e-06
1.14279e-05
7.51555e-07
1.05433e-05
2.31913e-07
9.31597e-06
-2.84089e-07
7.81338e-06
-1.02065e-06
6.22154e-06
-2.43904e-06
4.43212e-06
-5.88983e-06
2.04538e-06
-1.41842e-05
-2.06874e-05
-4.17385e-06
6.06496e-06
-3.63934e-06
3.47075e-06
-1.25945e-06
2.77246e-06
1.51836e-06
2.66488e-06
4.23652e-06
2.60986e-06
6.75116e-06
2.45178e-06
8.95106e-06
2.2223e-06
1.07769e-05
1.92939e-06
1.22111e-05
1.64268e-06
1.32809e-05
1.34279e-06
1.40035e-05
1.0909e-06
1.44231e-05
8.35882e-07
1.45288e-05
6.45839e-07
1.43318e-05
4.28944e-07
1.38204e-05
2.27266e-07
1.30096e-05
-2.09871e-07
1.18917e-05
-1.3211e-06
1.01e-05
-4.09814e-06
5.63281e-06
-9.71697e-06
-1.50546e-05
6.06496e-06
9.53571e-06
1.23082e-05
1.4973e-05
1.75829e-05
2.00347e-05
2.2257e-05
2.41864e-05
2.58291e-05
2.71718e-05
2.82627e-05
2.90986e-05
2.97445e-05
3.01734e-05
3.04007e-05
3.01908e-05
2.88697e-05
2.47716e-05
1.50546e-05
)
;

boundaryField
{
    movingWall
    {
        type            calculated;
        value           uniform 0;
    }
    fixedWalls
    {
        type            calculated;
        value           uniform 0;
    }
    frontAndBack
    {
        type            empty;
        value           nonuniform List<scalar> 0();
    }
}


// ************************************************************************* //
