/*--------------------------------*- C++ -*----------------------------------*\
| =========                 |                                                 |
| \\      /  F ield         | OpenFOAM: The Open Source CFD Toolbox           |
|  \\    /   O peration     | Version:  2212                                  |
|   \\  /    A nd           | Website:  www.openfoam.com                      |
|    \\/     M anipulation  |                                                 |
\*---------------------------------------------------------------------------*/
FoamFile
{
    version     2.0;
    format      ascii;
    arch        "LSB;label=32;scalar=64";
    class       volScalarField;
    location    "1.685";
    object      p;
}
// * * * * * * * * * * * * * * * * * * * * * * * * * * * * * * * * * * * * * //

dimensions      [0 2 -2 0 0 0 0];

internalField   nonuniform List<scalar> 
400
(
2.63844e-06
-0.00582551
-0.0129636
-0.0184161
-0.0204338
-0.0182402
-0.0117757
-0.00148552
0.0118356
0.0271475
0.043243
0.0588218
0.0725775
0.0833074
0.0900517
0.0922659
0.0900247
0.0842427
0.0768794
0.0710659
0.00578058
-0.00021881
-0.00580487
-0.00954371
-0.0106003
-0.0084342
-0.00297152
0.00547247
0.0163012
0.0287101
0.0417483
0.0543846
0.0655852
0.0744088
0.0801192
0.0823146
0.0810761
0.0770535
0.0712728
0.0653165
0.0133347
0.00503298
-0.000996254
-0.00442427
-0.00527425
-0.00326537
0.00160081
0.00902598
0.0185004
0.0293476
0.0407638
0.0518682
0.0617672
0.0696351
0.0748058
0.0768769
0.0758404
0.0720845
0.065804
0.057534
0.0201389
0.00869524
0.00122492
-0.00266968
-0.00372345
-0.00188676
0.00272975
0.00978299
0.0187788
0.0290934
0.0399903
0.0506524
0.0602315
0.0679146
0.0730019
0.0750002
0.0737645
0.0694547
0.0616014
0.0501009
0.0245015
0.00977239
0.000588877
-0.003988
-0.00530351
-0.00350877
0.00117321
0.00833298
0.0174604
0.0279475
0.0390834
0.0500683
0.0600473
0.0681636
0.0736249
0.0757963
0.0743675
0.0692883
0.059524
0.0445354
0.0251773
0.00714929
-0.00380289
-0.00905822
-0.0105133
-0.00850133
-0.0033583
0.00442786
0.0143118
0.0256774
0.0378122
0.0499017
0.0610465
0.0703015
0.0767331
0.0795153
0.0781374
0.072332
0.0605376
0.0418883
0.0210927
-0.000263201
-0.0129354
-0.0187103
-0.0200309
-0.0174152
-0.0113198
-0.0023212
0.00898887
0.0219746
0.0359081
0.0499428
0.0631106
0.0743437
0.0825203
0.0865679
0.0857191
0.0794455
0.0656187
0.04307
0.0111419
-0.0136192
-0.027876
-0.0338552
-0.0346046
-0.0308586
-0.0232141
-0.0123466
0.00110334
0.0164823
0.033051
0.0499321
0.0660818
0.0802884
0.0911992
0.0974285
0.0978687
0.0916345
0.0758947
0.0491149
-0.00596815
-0.0342675
-0.0498711
-0.0555497
-0.0550912
-0.0495157
-0.0395947
-0.0261146
-0.00975852
0.00882151
0.0288995
0.049592
0.069796
0.0881531
0.103046
0.1127
0.115549
0.11019
0.0928327
0.0614099
-0.0318582
-0.0638773
-0.0804181
-0.0850083
-0.0824212
-0.0740794
-0.060982
-0.0440378
-0.0239528
-0.00133829
0.0231441
0.0486595
0.0740942
0.0979708
0.118395
0.133124
0.139987
0.136817
0.118439
0.0819323
-0.0686685
-0.104605
-0.121346
-0.123591
-0.117517
-0.105128
-0.0877194
-0.0663266
-0.0416382
-0.0141569
0.0156042
0.0469518
0.0788544
0.109792
0.137622
0.159584
0.172726
0.173777
0.155519
0.11357
-0.119403
-0.159358
-0.174916
-0.172758
-0.161149
-0.14293
-0.11976
-0.0927781
-0.0625785
-0.0294488
0.00637197
0.0444723
0.0840539
0.123702
0.161135
0.193085
0.215667
0.224076
0.208049
0.160631
-0.188629
-0.232243
-0.24394
-0.233949
-0.213695
-0.187155
-0.156373
-0.122502
-0.0858988
-0.046473
-0.00401536
0.0415379
0.0898412
0.139828
0.189318
0.234688
0.271074
0.291663
0.281742
0.229775
-0.283975
-0.329305
-0.331832
-0.30828
-0.274709
-0.23644
-0.195765
-0.153611
-0.109841
-0.0637457
-0.0144384
0.0388629
0.0965537
0.158276
0.222374
0.285287
0.341397
0.381574
0.384913
0.331834
-0.419319
-0.459671
-0.442351
-0.395792
-0.342129
-0.287739
-0.234616
-0.18293
-0.131609
-0.078985
-0.0232141
0.0374752
0.104553
0.178838
0.259861
0.34497
0.428616
0.4997
0.529675
0.485391
-0.620532
-0.636744
-0.578677
-0.494193
-0.41124
-0.335658
-0.26778
-0.205977
-0.147536
-0.0893825
-0.0284256
0.0383487
0.113807
0.200472
0.299976
0.412025
0.53303
0.651775
0.732772
0.722396
-0.935923
-0.878514
-0.741741
-0.597948
-0.474392
-0.372658
-0.288867
-0.217762
-0.153952
-0.092463
-0.0287165
0.0416965
0.123264
0.220719
0.338927
0.482155
0.651997
0.841342
1.01527
1.0975
-1.47642
-1.20663
-0.920502
-0.691387
-0.517304
-0.387543
-0.29006
-0.213336
-0.148123
-0.0872144
-0.0245766
0.0454585
0.128938
0.233072
0.367104
0.542679
0.771294
1.05932
1.40329
1.73014
-2.53965
-1.63055
-1.04444
-0.710957
-0.495749
-0.352092
-0.254529
-0.183582
-0.126168
-0.073594
-0.019268
0.0427879
0.119213
0.218784
0.354813
0.547985
0.826394
1.23658
1.91168
2.92419
-4.36666
-2.04463
-0.973541
-0.563179
-0.357845
-0.240145
-0.170118
-0.123782
-0.0874801
-0.0535092
-0.0166534
0.0276616
0.0846084
0.16173
0.272412
0.4421
0.71822
1.22571
2.41104
4.84853
)
;

boundaryField
{
    movingWall
    {
        type            zeroGradient;
    }
    fixedWalls
    {
        type            zeroGradient;
    }
    frontAndBack
    {
        type            empty;
    }
}


// ************************************************************************* //
