/*--------------------------------*- C++ -*----------------------------------*\
| =========                 |                                                 |
| \\      /  F ield         | OpenFOAM: The Open Source CFD Toolbox           |
|  \\    /   O peration     | Version:  2212                                  |
|   \\  /    A nd           | Website:  www.openfoam.com                      |
|    \\/     M anipulation  |                                                 |
\*---------------------------------------------------------------------------*/
FoamFile
{
    version     2.0;
    format      ascii;
    arch        "LSB;label=32;scalar=64";
    class       volVectorField;
    location    "4.23";
    object      U;
}
// * * * * * * * * * * * * * * * * * * * * * * * * * * * * * * * * * * * * * //

dimensions      [0 1 -1 0 0 0 0];

internalField   nonuniform List<vector> 
400
(
(0.00166102 -0.00166632 0)
(0.0047719 -0.0018702 0)
(0.00648737 -0.00118836 0)
(0.00556092 -0.000566832 0)
(0.00147093 0.000191505 0)
(-0.00688204 0.00173747 0)
(-0.0205645 0.00475111 0)
(-0.0393578 0.00865876 0)
(-0.0604881 0.011206 0)
(-0.0787399 0.0104607 0)
(-0.0894276 0.0067694 0)
(-0.0901621 0.00170037 0)
(-0.0800695 -0.00355748 0)
(-0.060003 -0.00820583 0)
(-0.0336893 -0.0107863 0)
(-0.00557507 -0.00976357 0)
(0.016404 -0.00480596 0)
(0.0242145 0.00271934 0)
(0.0160626 0.00641486 0)
(0.00429662 0.00468723 0)
(0.00168249 -0.00498773 0)
(0.0030581 -0.00394955 0)
(-0.000552021 0.000621704 0)
(-0.0114212 0.00642512 0)
(-0.0313837 0.0139694 0)
(-0.0608836 0.0236011 0)
(-0.096331 0.0328114 0)
(-0.130755 0.0368478 0)
(-0.158169 0.0333536 0)
(-0.175287 0.0233499 0)
(-0.180692 0.00916823 0)
(-0.174427 -0.00684023 0)
(-0.157065 -0.022954 0)
(-0.129334 -0.0366674 0)
(-0.093487 -0.0443437 0)
(-0.052253 -0.0417027 0)
(-0.0115918 -0.0263459 0)
(0.016641 -0.00142301 0)
(0.0177259 0.0160579 0)
(0.00551579 0.0147221 0)
(-0.000274728 -0.00563502 0)
(-0.00544516 0.000925595 0)
(-0.0196257 0.01428 0)
(-0.0443581 0.0310497 0)
(-0.0799237 0.0490968 0)
(-0.121492 0.0638694 0)
(-0.161404 0.0700993 0)
(-0.194173 0.0656788 0)
(-0.217679 0.0519886 0)
(-0.231327 0.0315012 0)
(-0.235122 0.00655438 0)
(-0.229719 -0.0208203 0)
(-0.21543 -0.04846 0)
(-0.19175 -0.0727567 0)
(-0.158409 -0.0885825 0)
(-0.115371 -0.0889091 0)
(-0.064436 -0.0669263 0)
(-0.0139184 -0.0228434 0)
(0.00939363 0.0176591 0)
(0.00415174 0.0234232 0)
(-0.00346959 0.000618642 0)
(-0.0174565 0.0172986 0)
(-0.0433051 0.0412931 0)
(-0.079204 0.0677301 0)
(-0.122161 0.0905251 0)
(-0.164781 0.103175 0)
(-0.200662 0.102313 0)
(-0.227852 0.0892346 0)
(-0.246607 0.0670802 0)
(-0.257528 0.038549 0)
(-0.261454 0.00551357 0)
(-0.259188 -0.0307001 0)
(-0.250666 -0.0678625 0)
(-0.234841 -0.103042 0)
(-0.20972 -0.130779 0)
(-0.172602 -0.142288 0)
(-0.120937 -0.125405 0)
(-0.0567005 -0.07085 0)
(-0.00105252 0.00328591 0)
(0.00473823 0.0280458 0)
(-0.00662218 0.0148753 0)
(-0.028539 0.0439876 0)
(-0.0628493 0.0766206 0)
(-0.103706 0.108166 0)
(-0.146225 0.130328 0)
(-0.183307 0.137345 0)
(-0.211492 0.128785 0)
(-0.231155 0.108212 0)
(-0.243584 0.0794845 0)
(-0.250506 0.0453881 0)
(-0.253615 0.00745776 0)
(-0.253845 -0.0335078 0)
(-0.250975 -0.076365 0)
(-0.244441 -0.119807 0)
(-0.231429 -0.159881 0)
(-0.207317 -0.188145 0)
(-0.166069 -0.189285 0)
(-0.10302 -0.142531 0)
(-0.0221665 -0.0390043 0)
(0.00733106 0.0268756 0)
(-0.00843807 0.0348009 0)
(-0.0348863 0.076268 0)
(-0.072501 0.114197 0)
(-0.112361 0.146684 0)
(-0.149371 0.164943 0)
(-0.178063 0.16496 0)
(-0.197452 0.148909 0)
(-0.209068 0.12185 0)
(-0.214897 0.0881324 0)
(-0.217427 0.0507471 0)
(-0.218649 0.0111598 0)
(-0.21958 -0.030224 0)
(-0.220428 -0.0738965 0)
(-0.221273 -0.120261 0)
(-0.219909 -0.168113 0)
(-0.211223 -0.211965 0)
(-0.187124 -0.237616 0)
(-0.139041 -0.217813 0)
(-0.0625424 -0.118654 0)
(0.00576151 0.0140368 0)
(-0.00820698 0.0567273 0)
(-0.0350077 0.109375 0)
(-0.0711938 0.149478 0)
(-0.106155 0.17994 0)
(-0.135584 0.192609 0)
(-0.155846 0.185324 0)
(-0.167612 0.162326 0)
(-0.172984 0.129742 0)
(-0.174377 0.0923533 0)
(-0.174313 0.05319 0)
(-0.174335 0.0134932 0)
(-0.175142 -0.0267063 0)
(-0.177289 -0.0685845 0)
(-0.181306 -0.113466 0)
(-0.186522 -0.162493 0)
(-0.189264 -0.214511 0)
(-0.181608 -0.260501 0)
(-0.153561 -0.274197 0)
(-0.0988732 -0.205236 0)
(-0.00888155 -0.0147226 0)
(-0.00606043 0.0771098 0)
(-0.02948 0.139672 0)
(-0.0608311 0.179979 0)
(-0.0890654 0.206897 0)
(-0.110906 0.213495 0)
(-0.124309 0.199292 0)
(-0.130836 0.170215 0)
(-0.132785 0.133238 0)
(-0.132623 0.0933816 0)
(-0.132326 0.0533855 0)
(-0.132613 0.0139799 0)
(-0.133683 -0.0252283 0)
(-0.136006 -0.0653094 0)
(-0.140276 -0.107549 0)
(-0.147088 -0.153978 0)
(-0.155083 -0.206972 0)
(-0.158222 -0.264518 0)
(-0.146116 -0.306961 0)
(-0.111753 -0.276266 0)
(-0.0307722 -0.0750816 0)
(-0.00268378 0.0929384 0)
(-0.020176 0.164537 0)
(-0.044675 0.204173 0)
(-0.0656811 0.226995 0)
(-0.0808129 0.227987 0)
(-0.0891814 0.208121 0)
(-0.092652 0.1745 0)
(-0.0933604 0.13462 0)
(-0.0934206 0.0935269 0)
(-0.0940335 0.0534921 0)
(-0.0952686 0.0146149 0)
(-0.0970386 -0.0239186 0)
(-0.0995259 -0.0629419 0)
(-0.103243 -0.103214 0)
(-0.10934 -0.146438 0)
(-0.118527 -0.196612 0)
(-0.12759 -0.258146 0)
(-0.126022 -0.32211 0)
(-0.107081 -0.333567 0)
(-0.0371676 -0.162628 0)
(0.0012221 0.101949 0)
(-0.00880806 0.182199 0)
(-0.0253396 0.221573 0)
(-0.0392027 0.241041 0)
(-0.0485812 0.23784 0)
(-0.0533559 0.213975 0)
(-0.0551915 0.177324 0)
(-0.0557402 0.135764 0)
(-0.0565368 0.0942673 0)
(-0.0581491 0.0545775 0)
(-0.060357 0.0162336 0)
(-0.063013 -0.0218587 0)
(-0.0661174 -0.0604035 0)
(-0.0698636 -0.0996985 0)
(-0.0751988 -0.140529 0)
(-0.0837098 -0.186646 0)
(-0.095455 -0.24642 0)
(-0.100323 -0.322832 0)
(-0.0949226 -0.370944 0)
(-0.030833 -0.241529 0)
(0.00506756 0.103065 0)
(0.00296077 0.191684 0)
(-0.00529142 0.231962 0)
(-0.0123284 0.248977 0)
(-0.0166586 0.242924 0)
(-0.0184851 0.216807 0)
(-0.0190927 0.178839 0)
(-0.0195274 0.136892 0)
(-0.0207423 0.0956978 0)
(-0.0229196 0.0566169 0)
(-0.0257649 0.0189114 0)
(-0.0292074 -0.0186076 0)
(-0.0332666 -0.0566829 0)
(-0.0379013 -0.095453 0)
(-0.0436737 -0.134933 0)
(-0.0518585 -0.177653 0)
(-0.0653538 -0.23345 0)
(-0.0740765 -0.316452 0)
(-0.0810815 -0.395365 0)
(-0.0229042 -0.305952 0)
(0.00834459 0.0966398 0)
(0.0140768 0.192639 0)
(0.0139757 0.235441 0)
(0.0135963 0.251712 0)
(0.0142282 0.244655 0)
(0.0154362 0.218039 0)
(0.0163126 0.180083 0)
(0.016383 0.138502 0)
(0.0152469 0.0978273 0)
(0.012957 0.0593565 0)
(0.0097893 0.0223819 0)
(0.00571465 -0.0142801 0)
(0.000587007 -0.0514902 0)
(-0.0054689 -0.0894279 0)
(-0.0128601 -0.127794 0)
(-0.0217997 -0.167712 0)
(-0.0375863 -0.218335 0)
(-0.048798 -0.302742 0)
(-0.0679261 -0.40714 0)
(-0.0144727 -0.358819 0)
(0.0101625 0.0838187 0)
(0.0231272 0.1851 0)
(0.0307281 0.231587 0)
(0.0366094 0.248267 0)
(0.042226 0.24144 0)
(0.0471386 0.21575 0)
(0.0505304 0.179098 0)
(0.0521501 0.138843 0)
(0.0519488 0.0993451 0)
(0.0501455 0.061965 0)
(0.0469935 0.0261803 0)
(0.0424082 -0.00912755 0)
(0.0362129 -0.0449034 0)
(0.0285067 -0.0813966 0)
(0.0185168 -0.11829 0)
(0.0073209 -0.1559 0)
(-0.0119957 -0.201991 0)
(-0.0245155 -0.284708 0)
(-0.0559836 -0.409702 0)
(-0.00618573 -0.400746 0)
(0.00969845 0.0668208 0)
(0.0286218 0.169457 0)
(0.0438011 0.220604 0)
(0.0562264 0.239514 0)
(0.0674146 0.234577 0)
(0.0770026 0.211304 0)
(0.0841213 0.177136 0)
(0.0884623 0.138964 0)
(0.0901049 0.101065 0)
(0.0893671 0.0650255 0)
(0.0865904 0.030695 0)
(0.0815626 -0.00295681 0)
(0.0741346 -0.0365703 0)
(0.0645754 -0.0707707 0)
(0.0515491 -0.105395 0)
(0.0368364 -0.140391 0)
(0.0126252 -0.18192 0)
(-0.00037918 -0.261537 0)
(-0.0450355 -0.405519 0)
(0.00268383 -0.435285 0)
(0.00679732 0.0492741 0)
(0.0289042 0.148007 0)
(0.0504146 0.202202 0)
(0.0691087 0.222892 0)
(0.0864225 0.220001 0)
(0.101964 0.199928 0)
(0.114481 0.169473 0)
(0.123287 0.13477 0)
(0.128299 0.09983 0)
(0.129784 0.0663622 0)
(0.128023 0.0346046 0)
(0.123093 0.00373167 0)
(0.11452 -0.0266336 0)
(0.102935 -0.0573662 0)
(0.0861173 -0.0885482 0)
(0.0672099 -0.120832 0)
(0.0374828 -0.158732 0)
(0.0233028 -0.23559 0)
(-0.0347428 -0.397925 0)
(0.0133505 -0.463678 0)
(0.00233548 0.0347425 0)
(0.0232369 0.12329 0)
(0.0502195 0.1788 0)
(0.075684 0.201519 0)
(0.100115 0.201133 0)
(0.12278 0.18479 0)
(0.142024 0.158864 0)
(0.156632 0.128615 0)
(0.16619 0.097661 0)
(0.170925 0.0677082 0)
(0.1708 0.039343 0)
(0.166544 0.0121425 0)
(0.156787 -0.014266 0)
(0.14321 -0.040638 0)
(0.122206 -0.0673046 0)
(0.0989945 -0.095833 0)
(0.0635451 -0.130933 0)
(0.0463936 -0.206199 0)
(-0.0230665 -0.386373 0)
(0.0283551 -0.48507 0)
(-0.00339411 0.0289088 0)
(0.00978295 0.101256 0)
(0.0364464 0.147869 0)
(0.067989 0.168328 0)
(0.100587 0.169447 0)
(0.132027 0.157191 0)
(0.15976 0.13687 0)
(0.182058 0.112637 0)
(0.197893 0.0875651 0)
(0.207632 0.0631853 0)
(0.210455 0.0402433 0)
(0.208142 0.0185944 0)
(0.197973 -0.00212842 0)
(0.183503 -0.0224456 0)
(0.159003 -0.0428464 0)
(0.132759 -0.0664386 0)
(0.0917134 -0.100346 0)
(0.0692675 -0.179001 0)
(-0.00471153 -0.369607 0)
(0.0519904 -0.491399 0)
(-0.0138126 0.0188069 0)
(-0.007499 0.0882206 0)
(0.0188097 0.12379 0)
(0.0556537 0.136611 0)
(0.0964152 0.136057 0)
(0.136424 0.126857 0)
(0.172336 0.112264 0)
(0.201868 0.0946027 0)
(0.223521 0.0762924 0)
(0.238405 0.058333 0)
(0.24435 0.0416902 0)
(0.245225 0.0262258 0)
(0.236018 0.0121176 0)
(0.224359 -0.00147908 0)
(0.199712 -0.0153364 0)
(0.176167 -0.0341881 0)
(0.132331 -0.0669585 0)
(0.107209 -0.145506 0)
(0.0371863 -0.326053 0)
(0.0922524 -0.455841 0)
(-0.10588 0.0826226 0)
(-0.0776438 0.0691542 0)
(-0.048624 0.0732182 0)
(0.00341985 0.0775442 0)
(0.0565678 0.0777706 0)
(0.108927 0.0734775 0)
(0.155755 0.0661752 0)
(0.197797 0.0568385 0)
(0.229681 0.0472652 0)
(0.257646 0.0377207 0)
(0.273314 0.0291872 0)
(0.288457 0.0213219 0)
(0.288941 0.0146899 0)
(0.29323 0.0083948 0)
(0.277277 0.00151664 0)
(0.270412 -0.00962179 0)
(0.231467 -0.0352226 0)
(0.217753 -0.0952632 0)
(0.150132 -0.22972 0)
(0.170658 -0.341489 0)
(0.130047 0.1038 0)
(0.158486 0.0753796 0)
(0.21243 0.0533976 0)
(0.270923 0.0417548 0)
(0.323378 0.0359962 0)
(0.375618 0.0319897 0)
(0.419992 0.0289347 0)
(0.465083 0.0255895 0)
(0.497999 0.0229165 0)
(0.533112 0.0197337 0)
(0.552484 0.0175881 0)
(0.57829 0.0146652 0)
(0.584495 0.0132399 0)
(0.60296 0.0104348 0)
(0.594564 0.00948417 0)
(0.603274 0.00509036 0)
(0.567676 0.00016378 0)
(0.547713 -0.0182703 0)
(0.435898 -0.0504107 0)
(0.336854 -0.101404 0)
)
;

boundaryField
{
    movingWall
    {
        type            fixedValue;
        value           uniform (1 0 0);
    }
    fixedWalls
    {
        type            noSlip;
    }
    frontAndBack
    {
        type            empty;
    }
}


// ************************************************************************* //
