/*--------------------------------*- C++ -*----------------------------------*\
| =========                 |                                                 |
| \\      /  F ield         | OpenFOAM: The Open Source CFD Toolbox           |
|  \\    /   O peration     | Version:  2212                                  |
|   \\  /    A nd           | Website:  www.openfoam.com                      |
|    \\/     M anipulation  |                                                 |
\*---------------------------------------------------------------------------*/
FoamFile
{
    version     2.0;
    format      ascii;
    arch        "LSB;label=32;scalar=64";
    class       surfaceScalarField;
    location    "0.915";
    object      phi;
}
// * * * * * * * * * * * * * * * * * * * * * * * * * * * * * * * * * * * * * //

dimensions      [0 3 -1 0 0 0 0];

oriented        oriented;

internalField   nonuniform List<scalar> 
760
(
-3.26423e-08
3.26425e-08
-1.32774e-07
1.00132e-07
-2.61527e-07
1.28752e-07
-4.03802e-07
1.42275e-07
-5.62022e-07
1.5822e-07
-7.43457e-07
1.81435e-07
-9.53282e-07
2.09825e-07
-1.18866e-06
2.35381e-07
-1.43138e-06
2.42718e-07
-1.64185e-06
2.10465e-07
-1.76208e-06
1.20231e-07
-1.72966e-06
-3.24146e-08
-1.49437e-06
-2.35294e-07
-1.07906e-06
-4.15304e-07
-5.64731e-07
-5.14334e-07
-8.69428e-08
-4.77788e-07
2.20982e-07
-3.07925e-07
2.76788e-07
-5.58056e-08
1.44137e-07
1.32651e-07
1.44137e-07
-1.36823e-07
1.69466e-07
-4.03311e-07
3.6662e-07
-7.25975e-07
4.51415e-07
-1.08175e-06
4.98053e-07
-1.47025e-06
5.4672e-07
-1.89468e-06
6.05859e-07
-2.3498e-06
6.64949e-07
-2.81292e-06
6.985e-07
-3.23734e-06
6.67136e-07
-3.5529e-06
5.26024e-07
-3.68078e-06
2.4812e-07
-3.5533e-06
-1.59903e-07
-3.12409e-06
-6.64497e-07
-2.41436e-06
-1.12503e-06
-1.52721e-06
-1.40149e-06
-6.42155e-07
-1.36284e-06
8.80605e-09
-9.58886e-07
2.84529e-07
-3.31529e-07
1.91163e-07
2.26017e-07
3.353e-07
-2.18529e-07
3.87994e-07
-6.07891e-07
7.55982e-07
-1.06721e-06
9.10737e-07
-1.5682e-06
9.99043e-07
-2.10727e-06
1.08578e-06
-2.68181e-06
1.1804e-06
-3.2785e-06
1.26164e-06
-3.86818e-06
1.28819e-06
-4.4049e-06
1.20386e-06
-4.82645e-06
9.47575e-07
-5.05958e-06
4.81245e-07
-5.03195e-06
-1.87529e-07
-4.65239e-06
-1.04406e-06
-3.89993e-06
-1.87749e-06
-2.83068e-06
-2.47074e-06
-1.60422e-06
-2.58931e-06
-5.032e-07
-2.0599e-06
1.27215e-07
-9.61943e-07
1.87449e-07
1.65784e-07
5.22748e-07
-2.69544e-07
6.57538e-07
-7.37694e-07
1.22413e-06
-1.28365e-06
1.4567e-06
-1.87536e-06
1.59075e-06
-2.50869e-06
1.71911e-06
-3.18196e-06
1.85367e-06
-3.88758e-06
1.96726e-06
-4.61259e-06
2.0132e-06
-5.33877e-06
1.93004e-06
-6.0262e-06
1.635e-06
-6.5777e-06
1.03275e-06
-6.87539e-06
1.10166e-07
-6.72957e-06
-1.18988e-06
-6.07934e-06
-2.52772e-06
-4.92067e-06
-3.62941e-06
-3.34446e-06
-4.16552e-06
-1.62991e-06
-3.77446e-06
-2.98141e-07
-2.29371e-06
1.53686e-07
-2.86043e-07
6.76434e-07
-2.92374e-07
9.49912e-07
-7.99374e-07
1.73113e-06
-1.39069e-06
2.04801e-06
-2.03317e-06
2.23323e-06
-2.72667e-06
2.41261e-06
-3.4801e-06
2.6071e-06
-4.30734e-06
2.7945e-06
-5.2287e-06
2.93456e-06
-6.25654e-06
2.95788e-06
-7.34384e-06
2.72229e-06
-8.32723e-06
2.01614e-06
-8.92725e-06
7.10184e-07
-9.04279e-06
-1.07434e-06
-8.58807e-06
-2.98244e-06
-7.51164e-06
-4.70584e-06
-5.78383e-06
-5.89332e-06
-3.5212e-06
-6.03709e-06
-1.22254e-06
-4.59237e-06
4.0465e-08
-1.54905e-06
7.16899e-07
-2.89889e-07
1.2398e-06
-8.00822e-07
2.24207e-06
-1.40284e-06
2.65003e-06
-2.06418e-06
2.89457e-06
-2.7921e-06
3.14054e-06
-3.6123e-06
3.4273e-06
-4.56522e-06
3.74742e-06
-5.6962e-06
4.06554e-06
-7.01052e-06
4.2722e-06
-8.3957e-06
4.10747e-06
-9.60581e-06
3.22625e-06
-1.03773e-05
1.48164e-06
-1.06172e-05
-8.34371e-07
-1.04076e-05
-3.19206e-06
-9.6512e-06
-5.46226e-06
-8.19195e-06
-7.35258e-06
-5.86526e-06
-8.36378e-06
-2.84046e-06
-7.61716e-06
-3.38483e-07
-4.05103e-06
3.78416e-07
-2.64868e-07
1.50467e-06
-7.48368e-07
2.72557e-06
-1.32894e-06
3.2306e-06
-1.97653e-06
3.54216e-06
-2.70485e-06
3.86886e-06
-3.55302e-06
4.27547e-06
-4.57522e-06
4.76961e-06
-5.80915e-06
5.29947e-06
-7.20635e-06
5.6694e-06
-8.57827e-06
5.47939e-06
-9.67913e-06
4.32711e-06
-1.03832e-05
2.18575e-06
-1.0662e-05
-5.55648e-07
-1.06688e-05
-3.18526e-06
-1.03429e-05
-5.78811e-06
-9.49942e-06
-8.19607e-06
-7.78477e-06
-1.00784e-05
-4.86313e-06
-1.05388e-05
-1.24729e-06
-7.66687e-06
-8.68871e-07
-2.20416e-07
1.72509e-06
-6.47768e-07
3.15292e-06
-1.17448e-06
3.75731e-06
-1.76943e-06
4.13711e-06
-2.44523e-06
4.54466e-06
-3.23985e-06
5.07009e-06
-4.19631e-06
5.72607e-06
-5.31873e-06
6.4219e-06
-6.51436e-06
6.86502e-06
-7.59586e-06
6.5609e-06
-8.39949e-06
5.13075e-06
-8.9036e-06
2.68986e-06
-9.18406e-06
-2.75184e-07
-9.2949e-06
-3.07442e-06
-9.29838e-06
-5.78463e-06
-9.11541e-06
-8.37904e-06
-8.34472e-06
-1.08491e-05
-6.28964e-06
-1.25939e-05
-2.53053e-06
-1.1426e-05
-3.3994e-06
-1.6101e-07
1.8861e-06
-5.074e-07
3.49931e-06
-9.48997e-07
4.19891e-06
-1.44922e-06
4.63733e-06
-2.00968e-06
5.10512e-06
-2.65267e-06
5.71308e-06
-3.39763e-06
6.47103e-06
-4.22549e-06
7.24975e-06
-5.05061e-06
7.69014e-06
-5.75253e-06
7.26282e-06
-6.26523e-06
5.64344e-06
-6.60309e-06
3.02772e-06
-6.86611e-06
-1.21655e-08
-7.00694e-06
-2.93358e-06
-7.16028e-06
-5.63129e-06
-7.37897e-06
-8.16035e-06
-7.38695e-06
-1.08411e-05
-6.39469e-06
-1.35861e-05
-3.58789e-06
-1.42328e-05
-6.98729e-06
-9.35661e-08
1.97966e-06
-3.41526e-07
3.74727e-06
-6.73026e-07
4.53041e-06
-1.04336e-06
5.00766e-06
-1.43685e-06
5.49861e-06
-1.85421e-06
6.13045e-06
-2.29478e-06
6.91159e-06
-2.73875e-06
7.69372e-06
-3.15222e-06
8.1036e-06
-3.50888e-06
7.61948e-06
-3.82019e-06
5.95476e-06
-4.10809e-06
3.31562e-06
-4.38674e-06
2.66484e-07
-4.61659e-06
-2.70374e-06
-4.87026e-06
-5.37762e-06
-5.26588e-06
-7.76473e-06
-5.73095e-06
-1.03761e-05
-5.5677e-06
-1.37494e-05
-3.69584e-06
-1.61046e-05
-1.06831e-05
-2.73984e-08
2.00706e-06
-1.70403e-07
3.89027e-06
-3.78988e-07
4.73899e-06
-6.00836e-07
5.22951e-06
-8.02126e-07
5.6999e-06
-9.62639e-07
6.29096e-06
-1.06925e-06
7.01821e-06
-1.11334e-06
7.73781e-06
-1.1293e-06
8.11956e-06
-1.18325e-06
7.67343e-06
-1.3195e-06
6.09101e-06
-1.56133e-06
3.55745e-06
-1.89888e-06
6.04031e-07
-2.26763e-06
-2.33498e-06
-2.65833e-06
-4.98693e-06
-3.20236e-06
-7.22071e-06
-3.97647e-06
-9.60195e-06
-4.40193e-06
-1.33239e-05
-3.20069e-06
-1.73059e-05
-1.38838e-05
2.80942e-08
1.97897e-06
-1.64895e-08
3.93486e-06
-1.04918e-07
4.82742e-06
-1.77515e-07
5.30211e-06
-1.88102e-07
5.71049e-06
-1.01213e-07
6.20408e-06
1.08325e-07
6.80867e-06
4.17274e-07
7.42886e-06
7.72578e-07
7.76426e-06
1.0503e-06
7.3957e-06
1.13321e-06
6.0081e-06
9.74766e-07
3.71589e-06
6.01784e-07
9.77013e-07
1.22463e-07
-1.85566e-06
-4.93755e-07
-4.37071e-06
-1.27175e-06
-6.44271e-06
-2.3159e-06
-8.55781e-06
-3.21516e-06
-1.24247e-05
-2.63456e-06
-1.78865e-05
-1.65184e-05
6.08442e-08
1.91812e-06
9.01398e-08
3.90556e-06
1.07002e-07
4.81056e-06
1.65386e-07
5.24372e-06
3.13358e-07
5.56251e-06
5.90212e-07
5.92722e-06
1.02666e-06
6.37222e-06
1.62973e-06
6.82579e-06
2.32116e-06
7.07283e-06
2.93078e-06
6.78609e-06
3.26753e-06
5.67135e-06
3.2389e-06
3.74453e-06
2.86534e-06
1.35057e-06
2.20402e-06
-1.19433e-06
1.38606e-06
-3.55275e-06
3.73201e-07
-5.42986e-06
-9.03988e-07
-7.28062e-06
-2.13703e-06
-1.11916e-05
-2.07696e-06
-1.79465e-05
-1.85953e-05
6.26905e-08
1.85543e-06
1.31229e-07
3.83702e-06
2.2517e-07
4.71662e-06
3.89607e-07
5.07929e-06
6.6468e-07
5.28744e-06
1.08605e-06
5.50585e-06
1.68245e-06
5.77582e-06
2.45706e-06
6.05119e-06
3.34257e-06
6.18732e-06
4.17518e-06
5.95348e-06
4.73713e-06
5.1094e-06
4.8852e-06
3.59645e-06
4.6056e-06
1.63017e-06
3.89856e-06
-4.87302e-07
2.90194e-06
-2.55612e-06
1.68633e-06
-4.21425e-06
2.18057e-07
-5.81235e-06
-1.25209e-06
-9.72148e-06
-1.59653e-06
-1.76021e-05
-2.01919e-05
2.21841e-08
1.83325e-06
8.38239e-08
3.77538e-06
2.20085e-07
4.58035e-06
4.69698e-07
4.82967e-06
8.47448e-07
4.90969e-06
1.37058e-06
4.98272e-06
2.05534e-06
5.09106e-06
2.90185e-06
5.20468e-06
3.8584e-06
5.23077e-06
4.79218e-06
5.01969e-06
5.49982e-06
4.40176e-06
5.80235e-06
3.29393e-06
5.63142e-06
1.8011e-06
5.00038e-06
1.43739e-07
3.94457e-06
-1.50031e-06
2.61917e-06
-2.88885e-06
1.06454e-06
-4.25772e-06
-5.10459e-07
-8.14648e-06
-1.15963e-06
-1.69529e-05
-2.13515e-05
-6.72631e-08
1.90051e-06
-5.6681e-08
3.7648e-06
1.04096e-07
4.41958e-06
4.15841e-07
4.51793e-06
8.70811e-07
4.45472e-06
1.46229e-06
4.39124e-06
2.19048e-06
4.36286e-06
3.04799e-06
4.34717e-06
3.99406e-06
4.2847e-06
4.93007e-06
4.08368e-06
5.69143e-06
3.6404e-06
6.10157e-06
2.88379e-06
6.04711e-06
1.85556e-06
5.51239e-06
6.78468e-07
4.51187e-06
-4.99788e-07
3.20215e-06
-1.57913e-06
1.70784e-06
-2.76341e-06
1.00715e-07
-6.53935e-06
-6.26747e-07
-1.62255e-05
-2.19782e-05
-2.91899e-07
2.19241e-06
-4.81741e-07
3.95464e-06
-2.87557e-07
4.22539e-06
1.56878e-07
4.07349e-06
7.34792e-07
3.87681e-06
1.41153e-06
3.7145e-06
2.1805e-06
3.59389e-06
3.0346e-06
3.49308e-06
3.94038e-06
3.37891e-06
4.82902e-06
3.19505e-06
5.57448e-06
2.89494e-06
6.03493e-06
2.42334e-06
6.08057e-06
1.80992e-06
5.66445e-06
1.09458e-06
4.79559e-06
3.69074e-07
3.63954e-06
-4.23078e-07
2.41484e-06
-1.53871e-06
1.23379e-06
-5.35831e-06
1.97191e-07
-1.51889e-05
-2.17811e-05
-3.63489e-07
2.5559e-06
-6.33676e-07
4.22483e-06
-5.22588e-07
4.11431e-06
-1.25034e-07
3.67594e-06
4.58357e-07
3.29342e-06
1.15295e-06
3.01991e-06
1.93169e-06
2.81515e-06
2.78309e-06
2.64168e-06
3.6657e-06
2.49631e-06
4.53279e-06
2.32795e-06
5.28522e-06
2.14251e-06
5.83188e-06
1.87668e-06
6.06125e-06
1.58055e-06
5.93764e-06
1.21819e-06
5.4472e-06
8.59517e-07
4.75776e-06
2.66357e-07
4.0969e-06
-8.77842e-07
3.2197e-06
-4.48111e-06
1.54324e-06
-1.35124e-05
-2.02378e-05
-3.92435e-06
6.48025e-06
-3.65135e-06
3.95183e-06
-2.26363e-06
2.72658e-06
-8.5576e-07
2.26807e-06
4.58002e-07
1.97965e-06
1.73419e-06
1.74373e-06
2.98649e-06
1.56284e-06
4.22384e-06
1.40433e-06
5.42496e-06
1.29519e-06
6.57723e-06
1.17568e-06
7.62908e-06
1.09066e-06
8.53977e-06
9.65997e-07
9.23697e-06
8.83338e-07
9.70986e-06
7.453e-07
9.95614e-06
6.13237e-07
9.95522e-06
2.6728e-07
9.76051e-06
-6.83135e-07
9.00933e-06
-3.72992e-06
5.19576e-06
-9.69886e-06
-1.50421e-05
6.48025e-06
1.04321e-05
1.31587e-05
1.54267e-05
1.74064e-05
1.91501e-05
2.0713e-05
2.21173e-05
2.34125e-05
2.45882e-05
2.56788e-05
2.66448e-05
2.75281e-05
2.82734e-05
2.88867e-05
2.9154e-05
2.84708e-05
2.47409e-05
1.50421e-05
)
;

boundaryField
{
    movingWall
    {
        type            calculated;
        value           uniform 0;
    }
    fixedWalls
    {
        type            calculated;
        value           uniform 0;
    }
    frontAndBack
    {
        type            empty;
        value           nonuniform List<scalar> 0();
    }
}


// ************************************************************************* //
