/*--------------------------------*- C++ -*----------------------------------*\
| =========                 |                                                 |
| \\      /  F ield         | OpenFOAM: The Open Source CFD Toolbox           |
|  \\    /   O peration     | Version:  2212                                  |
|   \\  /    A nd           | Website:  www.openfoam.com                      |
|    \\/     M anipulation  |                                                 |
\*---------------------------------------------------------------------------*/
FoamFile
{
    version     2.0;
    format      ascii;
    arch        "LSB;label=32;scalar=64";
    class       volScalarField;
    location    "0.61";
    object      p;
}
// * * * * * * * * * * * * * * * * * * * * * * * * * * * * * * * * * * * * * //

dimensions      [0 2 -2 0 0 0 0];

internalField   nonuniform List<scalar> 
400
(
4.18626e-06
-0.00582284
-0.0129607
-0.0184131
-0.0204307
-0.0182372
-0.0117726
-0.00148242
0.0118387
0.0271506
0.0432459
0.0588246
0.0725803
0.0833101
0.0900545
0.0922687
0.0900276
0.0842456
0.0768824
0.0710688
0.00578316
-0.000216001
-0.00580195
-0.00954073
-0.0105973
-0.00843122
-0.00296856
0.00547545
0.0163042
0.0287131
0.0417513
0.0543875
0.065588
0.0744116
0.0801219
0.0823174
0.081079
0.0770565
0.0712758
0.0653195
0.0133374
0.0050358
-0.000993358
-0.0044213
-0.00527125
-0.00326239
0.00160374
0.00902888
0.0185033
0.0293506
0.0407668
0.0518712
0.0617701
0.069638
0.0748087
0.0768797
0.0758432
0.0720875
0.0658071
0.0575371
0.0201417
0.00869803
0.00122777
-0.00266674
-0.00372044
-0.00188375
0.00273272
0.00978589
0.0187816
0.0290963
0.0399933
0.0506555
0.0602345
0.0679176
0.0730048
0.0750031
0.0737674
0.0694576
0.0616045
0.050104
0.0245043
0.00977518
0.00059169
-0.00398512
-0.00530054
-0.00350573
0.00117624
0.00833595
0.0174633
0.0279503
0.0390863
0.0500713
0.0600503
0.0681666
0.0736279
0.0757993
0.0743705
0.0692912
0.059527
0.0445385
0.0251801
0.00715212
-0.00380008
-0.00905538
-0.0105104
-0.00849833
-0.00335523
0.00443091
0.0143147
0.0256803
0.0378151
0.0499046
0.0610495
0.0703046
0.0767361
0.0795184
0.0781404
0.072335
0.0605407
0.0418914
0.0210956
-0.0002603
-0.0129325
-0.0187075
-0.0200281
-0.0174122
-0.0113167
-0.0023181
0.00899195
0.0219776
0.035911
0.0499457
0.0631135
0.0743467
0.0825233
0.086571
0.0857222
0.0794486
0.0656218
0.0430731
0.0111448
-0.0136162
-0.0278731
-0.0338523
-0.0346017
-0.0308557
-0.0232112
-0.0123435
0.00110648
0.0164855
0.033054
0.049935
0.0660848
0.0802913
0.0912021
0.0974315
0.0978718
0.0916376
0.0758978
0.0491179
-0.00596526
-0.0342645
-0.0498681
-0.0555467
-0.0550882
-0.0495128
-0.0395918
-0.0261116
-0.00975541
0.00882467
0.0289026
0.0495951
0.069799
0.088156
0.103049
0.112703
0.115552
0.110193
0.0928358
0.061413
-0.0318553
-0.0638743
-0.080415
-0.0850052
-0.0824182
-0.0740764
-0.0609791
-0.0440349
-0.0239498
-0.00133516
0.0231473
0.0486627
0.0740973
0.0979739
0.118398
0.133127
0.13999
0.13682
0.118442
0.0819354
-0.0686655
-0.104602
-0.121343
-0.123588
-0.117514
-0.105125
-0.0877163
-0.0663237
-0.0416352
-0.0141538
0.0156074
0.046955
0.0788576
0.109795
0.137626
0.159587
0.172729
0.17378
0.155522
0.113573
-0.1194
-0.159355
-0.174913
-0.172755
-0.161146
-0.142927
-0.119757
-0.092775
-0.0625755
-0.0294457
0.00637503
0.0444754
0.0840571
0.123705
0.161138
0.193088
0.21567
0.224079
0.208052
0.160634
-0.188626
-0.23224
-0.243937
-0.233946
-0.213692
-0.187152
-0.15637
-0.122499
-0.0858957
-0.04647
-0.00401232
0.041541
0.0898443
0.139831
0.189321
0.234691
0.271077
0.291666
0.281745
0.229778
-0.283972
-0.329302
-0.331829
-0.308278
-0.274706
-0.236437
-0.195762
-0.153607
-0.109837
-0.0637426
-0.0144354
0.0388659
0.0965568
0.158279
0.222377
0.28529
0.3414
0.381577
0.384916
0.331836
-0.419316
-0.459668
-0.442347
-0.395789
-0.342126
-0.287736
-0.234613
-0.182927
-0.131606
-0.0789819
-0.0232109
0.0374783
0.104556
0.178841
0.259864
0.344973
0.428619
0.499703
0.529678
0.485394
-0.620528
-0.63674
-0.578674
-0.49419
-0.411237
-0.335655
-0.267777
-0.205974
-0.147533
-0.0893794
-0.0284225
0.0383519
0.11381
0.200475
0.299978
0.412028
0.533033
0.651778
0.732775
0.722399
-0.93592
-0.878511
-0.741738
-0.597945
-0.474389
-0.372655
-0.288864
-0.217759
-0.153949
-0.09246
-0.0287134
0.0416996
0.123267
0.220722
0.33893
0.482158
0.652
0.841345
1.01527
1.09751
-1.47642
-1.20663
-0.920499
-0.691384
-0.517301
-0.38754
-0.290057
-0.213333
-0.14812
-0.0872114
-0.0245735
0.0454615
0.128941
0.233075
0.367107
0.542682
0.771297
1.05932
1.40329
1.73015
-2.53964
-1.63054
-1.04443
-0.710955
-0.495746
-0.352089
-0.254526
-0.183579
-0.126165
-0.073591
-0.019265
0.0427909
0.119216
0.218787
0.354816
0.547988
0.826397
1.23658
1.91168
2.9242
-4.36666
-2.04463
-0.973538
-0.563176
-0.357842
-0.240142
-0.170115
-0.123779
-0.0874771
-0.0535062
-0.0166504
0.0276647
0.0846115
0.161734
0.272415
0.442103
0.718223
1.22571
2.41104
4.84854
)
;

boundaryField
{
    movingWall
    {
        type            zeroGradient;
    }
    fixedWalls
    {
        type            zeroGradient;
    }
    frontAndBack
    {
        type            empty;
    }
}


// ************************************************************************* //
