/*--------------------------------*- C++ -*----------------------------------*\
| =========                 |                                                 |
| \\      /  F ield         | OpenFOAM: The Open Source CFD Toolbox           |
|  \\    /   O peration     | Version:  2212                                  |
|   \\  /    A nd           | Website:  www.openfoam.com                      |
|    \\/     M anipulation  |                                                 |
\*---------------------------------------------------------------------------*/
FoamFile
{
    version     2.0;
    format      ascii;
    arch        "LSB;label=32;scalar=64";
    class       volScalarField;
    location    "3.005";
    object      p;
}
// * * * * * * * * * * * * * * * * * * * * * * * * * * * * * * * * * * * * * //

dimensions      [0 2 -2 0 0 0 0];

internalField   nonuniform List<scalar> 
400
(
-1.77786e-09
-0.000146229
-0.000511991
-0.00102569
-0.0016587
-0.00238463
-0.00304668
-0.0034421
-0.00340301
-0.00277879
-0.00142442
0.000685743
0.00325592
0.00549342
0.00654772
0.00603126
0.00421778
0.00243183
0.00140821
0.00132896
0.000116993
-5.05456e-05
-0.000352929
-0.000725728
-0.00118933
-0.00180414
-0.0025773
-0.00336476
-0.00386449
-0.00371633
-0.00265515
-0.000691366
0.00176225
0.00400434
0.00519597
0.00489579
0.00336077
0.00168124
0.000907364
0.000980458
0.000513357
0.000259406
-6.45276e-05
-0.000525539
-0.00127371
-0.0024383
-0.00398377
-0.00565081
-0.00699542
-0.00751121
-0.00685943
-0.00511372
-0.00261294
2.95516e-05
0.00200245
0.00267016
0.00200939
0.000836191
-5.52885e-05
-7.07126e-05
0.00108196
0.00069345
0.000181369
-0.000724744
-0.00229721
-0.0046365
-0.00752619
-0.0104947
-0.0129622
-0.014383
-0.014424
-0.0131139
-0.0106582
-0.00749348
-0.0043003
-0.00181229
-0.000503149
-0.000355633
-0.000940824
-0.00157091
0.0014428
0.000874375
-4.45368e-05
-0.00181023
-0.00469208
-0.00862056
-0.0131084
-0.0174654
-0.0210533
-0.0234118
-0.0242803
-0.0235387
-0.021295
-0.0178184
-0.013531
-0.00902868
-0.00509713
-0.00255573
-0.00185335
-0.00363743
0.00111526
0.000327377
-0.00118289
-0.00406365
-0.00845896
-0.0140017
-0.0198905
-0.0252919
-0.0296017
-0.0325004
-0.0338574
-0.0335729
-0.0317118
-0.0284064
-0.0237851
-0.0180595
-0.011821
-0.00645707
-0.00401556
-0.00610267
-0.000203719
-0.00122343
-0.00338673
-0.00737338
-0.013117
-0.019905
-0.0266891
-0.0325996
-0.0371394
-0.0401423
-0.0416143
-0.0415752
-0.0400807
-0.0371872
-0.0328592
-0.026969
-0.0196264
-0.0120557
-0.00739523
-0.00737338
-0.00251491
-0.00371328
-0.00643621
-0.0112768
-0.0179534
-0.0254649
-0.0326272
-0.0386214
-0.0430903
-0.0459949
-0.0474266
-0.0474819
-0.0462344
-0.0437207
-0.0398766
-0.0344504
-0.0271672
-0.0185314
-0.0112705
-0.00762332
-0.00546478
-0.00674265
-0.00983049
-0.0151759
-0.0223287
-0.0301079
-0.0372915
-0.0431502
-0.0474462
-0.0502203
-0.0516009
-0.0516988
-0.0505861
-0.0483105
-0.0448648
-0.0400664
-0.0334743
-0.0249019
-0.0159943
-0.00952623
-0.00851825
-0.00976959
-0.0130087
-0.0185226
-0.0257674
-0.033503
-0.0405338
-0.0462078
-0.050357
-0.05305
-0.0544133
-0.0545389
-0.0534876
-0.0513212
-0.0481034
-0.0437963
-0.0380502
-0.030299
-0.021418
-0.013667
-0.011179
-0.0123321
-0.0155205
-0.0209245
-0.0279756
-0.0354841
-0.0423143
-0.0478472
-0.0519252
-0.0546005
-0.0559766
-0.056122
-0.0550846
-0.0529316
-0.0497873
-0.0457559
-0.0407359
-0.0340496
-0.0261628
-0.0183342
-0.013166
-0.0141373
-0.0171118
-0.0221566
-0.0287817
-0.0359386
-0.0425756
-0.0480561
-0.0521609
-0.0548907
-0.0563102
-0.0564686
-0.0554044
-0.0531849
-0.0499859
-0.046026
-0.0415101
-0.0357227
-0.0289691
-0.0215032
-0.0144426
-0.015092
-0.017637
-0.0221117
-0.028129
-0.0348456
-0.0413073
-0.0468227
-0.0510557
-0.0539171
-0.0554177
-0.0555848
-0.0544513
-0.0521055
-0.048747
-0.0446581
-0.0403964
-0.0350957
-0.0292562
-0.0220489
-0.0150921
-0.0152994
-0.01716
-0.0207955
-0.0260129
-0.0322027
-0.0384959
-0.0441174
-0.0485805
-0.0516668
-0.0533111
-0.05351
-0.0522877
-0.0497508
-0.0461418
-0.0418264
-0.037426
-0.0322009
-0.027331
-0.0196493
-0.0152344
-0.0149547
-0.0158688
-0.0183607
-0.0225607
-0.0281183
-0.0342315
-0.0400163
-0.0448065
-0.0482215
-0.0500931
-0.0503661
-0.0490706
-0.0462995
-0.0423578
-0.0376588
-0.0328561
-0.0275151
-0.0237974
-0.0141195
-0.0149892
-0.0142949
-0.0139657
-0.0149768
-0.017954
-0.0227822
-0.0287003
-0.0346906
-0.0398938
-0.0437451
-0.0459535
-0.0463956
-0.0450933
-0.0421098
-0.0377885
-0.0325629
-0.027173
-0.0215318
-0.0181684
-0.00403422
-0.0144454
-0.0134556
-0.0116005
-0.0109449
-0.0126306
-0.0167242
-0.0224673
-0.0286948
-0.0343728
-0.0387545
-0.0414221
-0.042158
-0.0409552
-0.0378506
-0.0331378
-0.0271852
-0.0207104
-0.0137359
-0.00754233
0.0153588
-0.0144731
-0.0125996
-0.00873079
-0.0064086
-0.00698462
-0.0105341
-0.016207
-0.022708
-0.0288972
-0.0338738
-0.0371155
-0.0382884
-0.0373368
-0.0342567
-0.0291902
-0.0221556
-0.0133649
-0.00170497
0.0153725
0.055936
-0.0117942
-0.0119064
-0.00603323
-0.00223178
-0.00215643
-0.00553552
-0.0113128
-0.0181198
-0.0247882
-0.0303118
-0.0341379
-0.0358477
-0.0353455
-0.0323602
-0.0267365
-0.0176652
-0.00392744
0.0191495
0.0591317
0.128502
-0.0294938
-0.0107997
-0.00104612
0.00249452
0.00191851
-0.0018331
-0.00788587
-0.0150027
-0.0220226
-0.0279153
-0.0321053
-0.0341537
-0.0339275
-0.0310084
-0.0247474
-0.0129574
0.00867293
0.0499035
0.121452
0.224863
)
;

boundaryField
{
    movingWall
    {
        type            zeroGradient;
    }
    fixedWalls
    {
        type            zeroGradient;
    }
    frontAndBack
    {
        type            empty;
    }
}


// ************************************************************************* //
