/*--------------------------------*- C++ -*----------------------------------*\
| =========                 |                                                 |
| \\      /  F ield         | OpenFOAM: The Open Source CFD Toolbox           |
|  \\    /   O peration     | Version:  2212                                  |
|   \\  /    A nd           | Website:  www.openfoam.com                      |
|    \\/     M anipulation  |                                                 |
\*---------------------------------------------------------------------------*/
FoamFile
{
    version     2.0;
    format      ascii;
    arch        "LSB;label=32;scalar=64";
    class       surfaceScalarField;
    location    "2.81";
    object      phi;
}
// * * * * * * * * * * * * * * * * * * * * * * * * * * * * * * * * * * * * * //

dimensions      [0 3 -1 0 0 0 0];

oriented        oriented;

internalField   nonuniform List<scalar> 
760
(
1.40988e-07
-1.4099e-07
2.61859e-07
-1.20871e-07
2.71379e-07
-9.52009e-09
1.47304e-07
1.24075e-07
-1.44878e-07
2.92182e-07
-6.63835e-07
5.18957e-07
-1.43991e-06
7.76075e-07
-2.39645e-06
9.56537e-07
-3.34738e-06
9.50935e-07
-4.07076e-06
7.23381e-07
-4.40001e-06
3.29249e-07
-4.23935e-06
-1.6066e-07
-3.52534e-06
-7.1401e-07
-2.36472e-06
-1.16062e-06
-9.77787e-07
-1.38694e-06
2.73427e-07
-1.25121e-06
1.01195e-06
-7.38521e-07
9.81675e-07
3.02717e-08
4.41959e-07
5.39716e-07
4.41959e-07
1.01177e-07
-2.42167e-07
3.3778e-08
-5.3471e-08
-3.28522e-07
3.5278e-07
-1.0731e-06
8.68649e-07
-2.24541e-06
1.4645e-06
-3.77716e-06
2.0507e-06
-5.44121e-06
2.44012e-06
-6.94147e-06
2.4568e-06
-8.05405e-06
2.06351e-06
-8.6637e-06
1.33303e-06
-8.72032e-06
3.85868e-07
-8.19691e-06
-6.84071e-07
-7.12384e-06
-1.78708e-06
-5.53111e-06
-2.75335e-06
-3.55725e-06
-3.36079e-06
-1.49755e-06
-3.31092e-06
1.31187e-07
-2.36726e-06
8.12109e-07
-6.5065e-07
5.04994e-07
8.46831e-07
9.46953e-07
-1.41077e-07
-1.0109e-07
-6.37191e-07
4.42643e-07
-1.58305e-06
1.29864e-06
-3.02161e-06
2.30721e-06
-4.847e-06
3.28989e-06
-6.78682e-06
3.99052e-06
-8.53905e-06
4.19236e-06
-9.91949e-06
3.83724e-06
-1.08684e-05
3.01247e-06
-1.13745e-05
1.83913e-06
-1.1392e-05
4.03288e-07
-1.09597e-05
-1.11633e-06
-1.00643e-05
-2.68244e-06
-8.65247e-06
-4.16523e-06
-6.70312e-06
-5.31014e-06
-4.30445e-06
-5.70958e-06
-1.84494e-06
-4.82677e-06
-9.58457e-08
-2.39974e-06
2.87352e-07
4.63633e-07
1.2343e-06
-4.84365e-07
3.83276e-07
-1.49892e-06
1.45719e-06
-2.98139e-06
2.78111e-06
-4.85252e-06
4.17834e-06
-6.8775e-06
5.31487e-06
-8.76423e-06
5.87725e-06
-1.03088e-05
5.73694e-06
-1.14577e-05
4.98617e-06
-1.22336e-05
3.78829e-06
-1.2669e-05
2.27454e-06
-1.27522e-05
4.86506e-07
-1.25322e-05
-1.33634e-06
-1.19768e-05
-3.23783e-06
-1.09849e-05
-5.15712e-06
-9.42687e-06
-6.86818e-06
-7.18047e-06
-7.95598e-06
-4.28766e-06
-7.71958e-06
-1.34923e-06
-5.33817e-06
1.15699e-07
-1.00129e-06
1.35e-06
-8.18036e-07
1.20131e-06
-2.24307e-06
2.88223e-06
-4.02606e-06
4.5641e-06
-5.99349e-06
6.14577e-06
-7.88191e-06
7.20329e-06
-9.46998e-06
7.46532e-06
-1.06711e-05
6.93809e-06
-1.15034e-05
5.8184e-06
-1.20248e-05
4.30977e-06
-1.23067e-05
2.5564e-06
-1.24345e-05
6.1435e-07
-1.24049e-05
-1.366e-06
-1.22053e-05
-3.43743e-06
-1.17552e-05
-5.6072e-06
-1.08694e-05
-7.75396e-06
-9.26396e-06
-9.56143e-06
-6.65098e-06
-1.03326e-05
-3.1385e-06
-8.85065e-06
-2.5865e-07
-3.88115e-06
1.09135e-06
-1.0234e-06
2.22472e-06
-2.63615e-06
4.49498e-06
-4.44871e-06
6.37666e-06
-6.24645e-06
7.94351e-06
-7.81158e-06
8.76843e-06
-9.00682e-06
8.66056e-06
-9.8168e-06
7.74807e-06
-1.02999e-05
6.30146e-06
-1.05435e-05
4.5534e-06
-1.06475e-05
2.66043e-06
-1.07316e-05
6.9847e-07
-1.0796e-05
-1.30167e-06
-1.08495e-05
-3.38387e-06
-1.08616e-05
-5.59512e-06
-1.06758e-05
-7.93982e-06
-9.96383e-06
-1.02734e-05
-8.23952e-06
-1.20569e-05
-5.10611e-06
-1.19841e-05
-1.12771e-06
-7.85955e-06
-3.63545e-08
-1.04255e-06
3.26726e-06
-2.61043e-06
6.06286e-06
-4.24282e-06
8.00904e-06
-5.73516e-06
9.43585e-06
-6.92856e-06
9.96182e-06
-7.75139e-06
9.48339e-06
-8.23075e-06
8.22743e-06
-8.44814e-06
6.51885e-06
-8.50598e-06
4.61123e-06
-8.50422e-06
2.65867e-06
-8.53014e-06
7.24392e-07
-8.60959e-06
-1.22221e-06
-8.76102e-06
-3.23244e-06
-8.99487e-06
-5.36127e-06
-9.24901e-06
-7.68568e-06
-9.2841e-06
-1.02383e-05
-8.57846e-06
-1.27625e-05
-6.39172e-06
-1.41708e-05
-2.35528e-06
-1.1896e-05
-2.39164e-06
-8.77421e-07
4.14468e-06
-2.22288e-06
7.40832e-06
-3.56074e-06
9.34691e-06
-4.70951e-06
1.05846e-05
-5.5654e-06
1.08177e-05
-6.1028e-06
1.00208e-05
-6.37049e-06
8.49513e-06
-6.45581e-06
6.60417e-06
-6.45615e-06
4.61158e-06
-6.44905e-06
2.65157e-06
-6.47572e-06
7.5106e-07
-6.55576e-06
-1.14218e-06
-6.71253e-06
-3.07566e-06
-6.97847e-06
-5.09533e-06
-7.36858e-06
-7.29556e-06
-7.78253e-06
-9.82434e-06
-7.79788e-06
-1.27472e-05
-6.59781e-06
-1.53709e-05
-3.49097e-06
-1.50028e-05
-5.88261e-06
-5.85189e-07
4.72987e-06
-1.59935e-06
8.42248e-06
-2.59792e-06
1.03455e-05
-3.41571e-06
1.14024e-05
-3.99353e-06
1.13955e-05
-4.335e-06
1.03623e-05
-4.49365e-06
8.65378e-06
-4.54643e-06
6.65695e-06
-4.56783e-06
4.63298e-06
-4.60529e-06
2.68903e-06
-4.67092e-06
8.16691e-07
-4.77126e-06
-1.04184e-06
-4.91872e-06
-2.9282e-06
-5.1459e-06
-4.86815e-06
-5.51207e-06
-6.92939e-06
-6.02711e-06
-9.3093e-06
-6.45512e-06
-1.23191e-05
-6.04242e-06
-1.57836e-05
-3.85605e-06
-1.71892e-05
-9.73866e-06
-2.17241e-07
4.94711e-06
-8.48229e-07
9.05347e-06
-1.49839e-06
1.09956e-05
-2.01429e-06
1.19183e-05
-2.36496e-06
1.17462e-05
-2.57102e-06
1.05683e-05
-2.67864e-06
8.7614e-06
-2.74113e-06
6.71944e-06
-2.80484e-06
4.69669e-06
-2.89322e-06
2.77742e-06
-3.00829e-06
9.31754e-07
-3.14819e-06
-9.01943e-07
-3.31422e-06
-2.76216e-06
-3.52286e-06
-4.65951e-06
-3.834e-06
-6.61825e-06
-4.33384e-06
-8.80946e-06
-4.95599e-06
-1.1697e-05
-5.07607e-06
-1.56635e-05
-3.52316e-06
-1.87421e-05
-1.32618e-05
1.53243e-07
4.79387e-06
-6.90741e-08
9.27579e-06
-3.91484e-07
1.1318e-05
-6.36023e-07
1.21629e-05
-7.85887e-07
1.18961e-05
-8.70599e-07
1.0653e-05
-9.29783e-07
8.82058e-06
-9.96334e-07
6.78599e-06
-1.08723e-06
4.78759e-06
-1.2093e-06
2.89949e-06
-1.36272e-06
1.08518e-06
-1.54787e-06
-7.16797e-07
-1.76319e-06
-2.54684e-06
-2.01035e-06
-4.41236e-06
-2.32433e-06
-6.30427e-06
-2.8098e-06
-8.32399e-06
-3.52469e-06
-1.09821e-05
-4.00742e-06
-1.51808e-05
-3.01209e-06
-1.97374e-05
-1.62739e-05
4.66437e-07
4.32743e-06
6.52501e-07
9.08972e-06
6.91899e-07
1.12787e-05
7.26837e-07
1.21279e-05
7.74019e-07
1.18489e-05
8.06145e-07
1.06209e-05
8.0091e-07
8.82582e-06
7.49175e-07
6.83772e-06
6.53311e-07
4.88345e-06
5.17663e-07
3.03513e-06
3.39923e-07
1.26292e-06
1.15094e-07
-4.91969e-07
-1.60207e-07
-2.27154e-06
-4.91297e-07
-4.08127e-06
-8.88932e-07
-5.90664e-06
-1.41001e-06
-7.8029e-06
-2.2056e-06
-1.01865e-05
-2.96655e-06
-1.44198e-05
-2.46803e-06
-2.0236e-05
-1.87419e-05
7.00399e-07
3.62703e-06
1.26509e-06
8.52503e-06
1.64083e-06
1.09029e-05
1.96217e-06
1.18066e-05
2.23447e-06
1.15766e-05
2.42241e-06
1.0433e-05
2.51334e-06
8.73489e-06
2.51722e-06
6.83384e-06
2.45039e-06
4.95028e-06
2.32342e-06
3.1621e-06
2.13231e-06
1.45402e-06
1.8629e-06
-2.22554e-07
1.51406e-06
-1.92269e-06
1.08042e-06
-3.64763e-06
5.55942e-07
-5.38216e-06
-1.193e-07
-7.12766e-06
-9.96711e-07
-9.30911e-06
-1.96291e-06
-1.34536e-05
-1.94629e-06
-2.02526e-05
-2.06882e-05
8.0264e-07
2.82439e-06
1.68736e-06
7.64031e-06
2.39615e-06
1.01941e-05
3.01868e-06
1.11841e-05
3.55819e-06
1.10371e-05
3.96634e-06
1.00248e-05
4.22208e-06
8.47914e-06
4.33783e-06
6.71809e-06
4.33854e-06
4.94957e-06
4.24209e-06
3.25855e-06
4.04784e-06
1.64827e-06
3.73534e-06
8.9948e-08
3.30517e-06
-1.49253e-06
2.74287e-06
-3.08533e-06
2.04686e-06
-4.68615e-06
1.23002e-06
-6.31083e-06
1.93299e-07
-8.27239e-06
-1.02387e-06
-1.22364e-05
-1.45876e-06
-1.98177e-05
-2.2147e-05
7.39674e-07
2.08472e-06
1.81276e-06
6.56722e-06
2.80543e-06
9.20145e-06
3.74731e-06
1.02422e-05
4.60585e-06
1.01785e-05
5.31072e-06
9.31995e-06
5.81776e-06
7.97211e-06
6.12726e-06
6.40859e-06
6.2612e-06
4.81562e-06
6.24048e-06
3.27927e-06
6.06708e-06
1.82168e-06
5.73024e-06
4.2679e-07
5.20969e-06
-9.71982e-07
4.50489e-06
-2.38053e-06
3.60947e-06
-3.79073e-06
2.55326e-06
-5.25461e-06
1.28586e-06
-7.00499e-06
-2.14983e-07
-1.07356e-05
-9.58307e-07
-1.90744e-05
-2.31053e-05
5.26145e-07
1.55857e-06
1.62189e-06
5.47148e-06
2.89043e-06
7.93291e-06
4.18758e-06
8.94502e-06
5.41718e-06
8.94892e-06
6.47775e-06
8.25938e-06
7.29897e-06
7.1509e-06
7.86427e-06
5.84328e-06
8.18536e-06
4.49453e-06
8.28057e-06
3.18406e-06
8.157e-06
1.94524e-06
7.81296e-06
7.70829e-07
7.20553e-06
-3.64548e-07
6.35128e-06
-1.52628e-06
5.23848e-06
-2.67793e-06
3.91284e-06
-3.92896e-06
2.43134e-06
-5.52349e-06
8.47676e-07
-9.15194e-06
-1.96293e-07
-1.80304e-05
-2.33016e-05
1.22029e-07
1.43654e-06
9.26347e-07
4.66716e-06
2.32108e-06
6.53818e-06
3.96877e-06
7.29733e-06
5.63322e-06
7.28447e-06
7.12854e-06
6.76406e-06
8.34752e-06
5.93191e-06
9.25651e-06
4.9343e-06
9.84816e-06
3.90288e-06
1.0135e-05
2.89718e-06
1.01217e-05
1.95859e-06
9.81448e-06
1.07805e-06
9.18072e-06
2.6921e-07
8.22156e-06
-5.67118e-07
6.94482e-06
-1.40119e-06
5.40044e-06
-2.38459e-06
3.74475e-06
-3.86781e-06
2.13798e-06
-7.54517e-06
6.12755e-07
-1.65052e-05
-2.26888e-05
-4.96535e-07
1.93308e-06
1.51201e-07
4.01942e-06
1.60215e-06
5.08724e-06
3.56043e-06
5.33904e-06
5.62802e-06
5.21689e-06
7.52508e-06
4.86699e-06
9.111e-06
4.346e-06
1.03414e-05
3.7039e-06
1.11946e-05
3.04971e-06
1.16874e-05
2.40432e-06
1.18235e-05
1.82249e-06
1.16236e-05
1.27795e-06
1.11021e-05
7.9077e-07
1.02462e-05
2.8876e-07
9.06228e-06
-2.17287e-07
7.61213e-06
-9.34431e-07
6.08593e-06
-2.34161e-06
4.35631e-06
-5.81555e-06
2.01341e-06
-1.41623e-05
-2.06754e-05
-4.15858e-06
6.09166e-06
-3.64123e-06
3.50207e-06
-1.32052e-06
2.76653e-06
1.38301e-06
2.6355e-06
4.0314e-06
2.5685e-06
6.48906e-06
2.40934e-06
8.64856e-06
2.1865e-06
1.04497e-05
1.90274e-06
1.1873e-05
1.62642e-06
1.29422e-05
1.33511e-06
1.36728e-05
1.0919e-06
1.41072e-05
8.43623e-07
1.42365e-05
6.61381e-07
1.40763e-05
4.48965e-07
1.3606e-05
2.53014e-07
1.28409e-05
-1.6928e-07
1.1786e-05
-1.28672e-06
1.0053e-05
-4.08258e-06
5.61335e-06
-9.7226e-06
-1.50621e-05
6.09166e-06
9.59373e-06
1.23603e-05
1.49958e-05
1.75643e-05
1.99736e-05
2.21601e-05
2.40628e-05
2.56893e-05
2.70244e-05
2.81163e-05
2.89599e-05
2.96213e-05
3.00702e-05
3.03232e-05
3.0154e-05
2.88672e-05
2.47847e-05
1.50621e-05
)
;

boundaryField
{
    movingWall
    {
        type            calculated;
        value           uniform 0;
    }
    fixedWalls
    {
        type            calculated;
        value           uniform 0;
    }
    frontAndBack
    {
        type            empty;
        value           nonuniform List<scalar> 0();
    }
}


// ************************************************************************* //
