/*--------------------------------*- C++ -*----------------------------------*\
| =========                 |                                                 |
| \\      /  F ield         | OpenFOAM: The Open Source CFD Toolbox           |
|  \\    /   O peration     | Version:  2212                                  |
|   \\  /    A nd           | Website:  www.openfoam.com                      |
|    \\/     M anipulation  |                                                 |
\*---------------------------------------------------------------------------*/
FoamFile
{
    version     2.0;
    format      ascii;
    arch        "LSB;label=32;scalar=64";
    class       volVectorField;
    location    "3.98";
    object      U;
}
// * * * * * * * * * * * * * * * * * * * * * * * * * * * * * * * * * * * * * //

dimensions      [0 1 -1 0 0 0 0];

internalField   nonuniform List<vector> 
400
(
(0.00165304 -0.00165961 0)
(0.00474669 -0.00186178 0)
(0.00644861 -0.00118346 0)
(0.00551854 -0.000563414 0)
(0.00143369 0.000194425 0)
(-0.00690062 0.00173647 0)
(-0.0205466 0.00473727 0)
(-0.0392883 0.00862913 0)
(-0.0603671 0.011173 0)
(-0.0785909 0.0104403 0)
(-0.0892811 0.00676542 0)
(-0.0900416 0.00170877 0)
(-0.0799947 -0.00353979 0)
(-0.0599811 -0.00818412 0)
(-0.0337197 -0.0107659 0)
(-0.00564636 -0.0097511 0)
(0.0163139 -0.0048125 0)
(0.0241375 0.00270284 0)
(0.0160264 0.00639727 0)
(0.00429031 0.00467768 0)
(0.00166887 -0.00495903 0)
(0.0030213 -0.00391935 0)
(-0.000597941 0.000633702 0)
(-0.0114489 0.00641801 0)
(-0.0313599 0.0139377 0)
(-0.0607765 0.0235355 0)
(-0.0961336 0.0327187 0)
(-0.130492 0.0367592 0)
(-0.157874 0.0332957 0)
(-0.17499 0.0233318 0)
(-0.180418 0.00918699 0)
(-0.174188 -0.0067923 0)
(-0.156877 -0.0228834 0)
(-0.129202 -0.0365871 0)
(-0.0934148 -0.0442682 0)
(-0.0522418 -0.0416508 0)
(-0.0116301 -0.0263383 0)
(0.0165742 -0.00146036 0)
(0.0176838 0.0160095 0)
(0.00550813 0.0146921 0)
(-0.000286023 -0.00558336 0)
(-0.00546353 0.000967292 0)
(-0.0196227 0.0142687 0)
(-0.0442927 0.030977 0)
(-0.0797589 0.0489661 0)
(-0.121223 0.0637052 0)
(-0.161058 0.0699419 0)
(-0.193782 0.0655611 0)
(-0.217269 0.0519257 0)
(-0.230919 0.0314965 0)
(-0.234734 0.00660442 0)
(-0.229362 -0.0207225 0)
(-0.215112 -0.0483255 0)
(-0.191482 -0.0726034 0)
(-0.158198 -0.0884336 0)
(-0.115227 -0.0887929 0)
(-0.0643691 -0.0668738 0)
(-0.0139288 -0.0228798 0)
(0.00937221 0.0175879 0)
(0.00415104 0.0233772 0)
(-0.00346669 0.000673203 0)
(-0.0174288 0.0173114 0)
(-0.0432183 0.0412101 0)
(-0.0790201 0.0675568 0)
(-0.121865 0.0902954 0)
(-0.164398 0.102939 0)
(-0.200226 0.102116 0)
(-0.227387 0.0890998 0)
(-0.246132 0.0670155 0)
(-0.257061 0.0385555 0)
(-0.261005 0.00558902 0)
(-0.258765 -0.030561 0)
(-0.250277 -0.0676744 0)
(-0.234493 -0.102822 0)
(-0.209421 -0.130552 0)
(-0.172362 -0.142085 0)
(-0.120774 -0.125267 0)
(-0.0566338 -0.0708176 0)
(-0.00106431 0.00321728 0)
(0.00473637 0.0279909 0)
(-0.00660578 0.0148992 0)
(-0.0284653 0.0439317 0)
(-0.0626851 0.0764423 0)
(-0.103433 0.107894 0)
(-0.145854 0.130019 0)
(-0.182875 0.13706 0)
(-0.211029 0.128561 0)
(-0.230678 0.108064 0)
(-0.243105 0.0794165 0)
(-0.250034 0.0454005 0)
(-0.253157 0.00754854 0)
(-0.25341 -0.0333463 0)
(-0.250572 -0.0761477 0)
(-0.244072 -0.119549 0)
(-0.2311 -0.159603 0)
(-0.207033 -0.187873 0)
(-0.165843 -0.189053 0)
(-0.102877 -0.142389 0)
(-0.0221458 -0.0390157 0)
(0.00731642 0.0268173 0)
(-0.00841162 0.0347641 0)
(-0.0347816 0.0761239 0)
(-0.0722924 0.113923 0)
(-0.112051 0.146326 0)
(-0.148985 0.164574 0)
(-0.177639 0.164638 0)
(-0.197008 0.148663 0)
(-0.208614 0.121688 0)
(-0.214436 0.0880576 0)
(-0.216963 0.0507603 0)
(-0.21819 0.0112591 0)
(-0.219142 -0.0300479 0)
(-0.220023 -0.0736571 0)
(-0.220908 -0.119978 0)
(-0.219586 -0.167808 0)
(-0.21094 -0.211658 0)
(-0.186883 -0.237326 0)
(-0.138853 -0.217572 0)
(-0.0624372 -0.118527 0)
(0.00574049 0.0139992 0)
(-0.00817785 0.0566185 0)
(-0.0348936 0.10914 0)
(-0.0709772 0.149118 0)
(-0.105852 0.179514 0)
(-0.135225 0.192193 0)
(-0.15546 0.184972 0)
(-0.167206 0.162058 0)
(-0.172557 0.129562 0)
(-0.173926 0.0922662 0)
(-0.173842 0.0531998 0)
(-0.173858 0.0136034 0)
(-0.174679 -0.026501 0)
(-0.17686 -0.0682989 0)
(-0.180928 -0.11313 0)
(-0.186202 -0.16214 0)
(-0.188999 -0.21417 0)
(-0.181386 -0.260182 0)
(-0.153377 -0.273904 0)
(-0.0987232 -0.20501 0)
(-0.00886412 -0.014732 0)
(-0.00603665 0.0769298 0)
(-0.029378 0.139354 0)
(-0.0606383 0.179547 0)
(-0.0888025 0.206414 0)
(-0.1106 0.213039 0)
(-0.123977 0.19891 0)
(-0.130477 0.16992 0)
(-0.132392 0.133031 0)
(-0.13219 0.0932682 0)
(-0.13186 0.0533787 0)
(-0.132133 0.0140923 0)
(-0.133211 -0.0249955 0)
(-0.135564 -0.0649716 0)
(-0.139885 -0.107141 0)
(-0.146765 -0.153547 0)
(-0.154832 -0.206564 0)
(-0.158029 -0.264158 0)
(-0.145967 -0.306635 0)
(-0.111626 -0.27598 0)
(-0.0307137 -0.0749785 0)
(-0.00267099 0.0926976 0)
(-0.020101 0.164147 0)
(-0.0445271 0.203681 0)
(-0.0654791 0.226465 0)
(-0.080577 0.227495 0)
(-0.0889201 0.207707 0)
(-0.0923578 0.174169 0)
(-0.0930247 0.134372 0)
(-0.0930415 0.0933741 0)
(-0.0936221 0.0534569 0)
(-0.0948433 0.0147178 0)
(-0.0966168 -0.0236732 0)
(-0.0991249 -0.0625699 0)
(-0.102881 -0.10275 0)
(-0.109036 -0.145931 0)
(-0.118296 -0.196127 0)
(-0.127425 -0.257729 0)
(-0.125912 -0.321752 0)
(-0.106988 -0.333227 0)
(-0.0371229 -0.162379 0)
(0.00121976 0.101668 0)
(-0.00877103 0.181755 0)
(-0.0252521 0.221037 0)
(-0.0390781 0.240474 0)
(-0.0484316 0.237314 0)
(-0.053183 0.213525 0)
(-0.0549868 0.176953 0)
(-0.0554976 0.135473 0)
(-0.0562585 0.0940754 0)
(-0.0578472 0.0545153 0)
(-0.0600453 0.016325 0)
(-0.0627015 -0.0216103 0)
(-0.065815 -0.0600141 0)
(-0.0695819 -0.099198 0)
(-0.074953 -0.139964 0)
(-0.0835201 -0.186086 0)
(-0.0953267 -0.245941 0)
(-0.100258 -0.322449 0)
(-0.0948688 -0.370595 0)
(-0.0308149 -0.241233 0)
(0.00504738 0.102774 0)
(0.00295366 0.191208 0)
(-0.00527304 0.231398 0)
(-0.0122902 0.248385 0)
(-0.0166054 0.242374 0)
(-0.0184152 0.216329 0)
(-0.0189994 0.178436 0)
(-0.0194082 0.136568 0)
(-0.0206014 0.0954777 0)
(-0.0227664 0.0565338 0)
(-0.025606 0.0189893 0)
(-0.0290444 -0.0183668 0)
(-0.0331005 -0.0562947 0)
(-0.0377374 -0.0949443 0)
(-0.0435198 -0.134341 0)
(-0.0517342 -0.17704 0)
(-0.0652703 -0.232911 0)
(-0.0740535 -0.316033 0)
(-0.0810591 -0.394999 0)
(-0.0228983 -0.305628 0)
(0.0083049 0.0963703 0)
(0.0140224 0.192157 0)
(0.0139214 0.234867 0)
(0.0135422 0.25111 0)
(0.0141752 0.244089 0)
(0.0153888 0.21754 0)
(0.0162757 0.179657 0)
(0.0163576 0.138156 0)
(0.0152288 0.097589 0)
(0.0129412 0.0592586 0)
(0.009777 0.0224459 0)
(0.00571207 -0.0140537 0)
(0.000598833 -0.0511153 0)
(-0.00544408 -0.0889307 0)
(-0.0128214 -0.127204 0)
(-0.0217628 -0.167079 0)
(-0.0375625 -0.217758 0)
(-0.0488232 -0.302309 0)
(-0.067936 -0.406787 0)
(-0.0144787 -0.358497 0)
(0.0101073 0.0836052 0)
(0.0230272 0.184642 0)
(0.0306038 0.231024 0)
(0.0364661 0.24767 0)
(0.0420685 0.240873 0)
(0.0469725 0.215246 0)
(0.0503598 0.178667 0)
(0.0519753 0.138497 0)
(0.0517677 0.0991056 0)
(0.0499576 0.0618618 0)
(0.0468068 0.0262324 0)
(0.0422369 -0.00892095 0)
(0.0360661 -0.0445499 0)
(0.0283858 -0.080923 0)
(0.0184307 -0.117722 0)
(0.00725987 -0.155274 0)
(-0.0120393 -0.201397 0)
(-0.0245867 -0.284263 0)
(-0.0560197 -0.40936 0)
(-0.00619916 -0.400444 0)
(0.00964123 0.0666913 0)
(0.0284879 0.169059 0)
(0.0436167 0.220081 0)
(0.0560019 0.238945 0)
(0.0671574 0.234025 0)
(0.0767198 0.210808 0)
(0.0838178 0.176711 0)
(0.0881399 0.138624 0)
(0.0897647 0.100829 0)
(0.0890143 0.0649184 0)
(0.0862293 0.0307318 0)
(0.0812262 -0.00276506 0)
(0.0738325 -0.0362448 0)
(0.0643106 -0.0703362 0)
(0.051337 -0.104872 0)
(0.0366713 -0.139804 0)
(0.0125066 -0.181345 0)
(-0.00049243 -0.261105 0)
(-0.0450945 -0.405206 0)
(0.00266253 -0.435024 0)
(0.00675639 0.0492374 0)
(0.0287574 0.147699 0)
(0.0501896 0.201741 0)
(0.0688231 0.222369 0)
(0.0860864 0.219484 0)
(0.101585 0.19946 0)
(0.114065 0.169075 0)
(0.122838 0.134455 0)
(0.127822 0.0996134 0)
(0.129289 0.0662632 0)
(0.127523 0.0346333 0)
(0.122614 0.00389774 0)
(0.114069 -0.0263525 0)
(0.102533 -0.056987 0)
(0.0857877 -0.0880886 0)
(0.0669456 -0.12031 0)
(0.0372908 -0.158205 0)
(0.0231664 -0.235189 0)
(-0.0348177 -0.397649 0)
(0.0133188 -0.463474 0)
(0.00232028 0.0347804 0)
(0.0231106 0.123096 0)
(0.049986 0.178434 0)
(0.0753651 0.201073 0)
(0.0997239 0.200677 0)
(0.122325 0.184369 0)
(0.141513 0.158502 0)
(0.156074 0.128329 0)
(0.165594 0.0974621 0)
(0.170305 0.0676105 0)
(0.170176 0.0393531 0)
(0.165935 0.0122596 0)
(0.156218 -0.0140498 0)
(0.142697 -0.040332 0)
(0.121776 -0.0669256 0)
(0.0986441 -0.0954001 0)
(0.0632851 -0.130486 0)
(0.0462413 -0.205872 0)
(-0.0231578 -0.386179 0)
(0.0283098 -0.484934 0)
(-0.00338337 0.029001 0)
(0.00969414 0.101175 0)
(0.0362397 0.147605 0)
(0.0676816 0.167974 0)
(0.100189 0.169072 0)
(0.131546 0.15684 0)
(0.159205 0.136569 0)
(0.18144 0.1124 0)
(0.197227 0.0874042 0)
(0.206932 0.0631074 0)
(0.209747 0.0402533 0)
(0.20744 0.0186884 0)
(0.197316 -0.00195115 0)
(0.182906 -0.022201 0)
(0.158494 -0.0425496 0)
(0.132344 -0.0661076 0)
(0.0914121 -0.100001 0)
(0.0691117 -0.178733 0)
(-0.00480153 -0.369483 0)
(0.0519459 -0.491327 0)
(-0.0137505 0.018897 0)
(-0.00749387 0.0882317 0)
(0.0186813 0.12366 0)
(0.0554048 0.136389 0)
(0.0960473 0.135797 0)
(0.135945 0.1266 0)
(0.17176 0.112036 0)
(0.201209 0.0944192 0)
(0.222805 0.0761642 0)
(0.237645 0.0582639 0)
(0.243583 0.0416862 0)
(0.244466 0.0262812 0)
(0.235311 0.0122345 0)
(0.223707 -0.0013205 0)
(0.199159 -0.0151389 0)
(0.175727 -0.0339729 0)
(0.132016 -0.0667391 0)
(0.107039 -0.145372 0)
(0.0371071 -0.326031 0)
(0.0922213 -0.455828 0)
(-0.105838 0.0826852 0)
(-0.0776102 0.0692004 0)
(-0.0486455 0.0731654 0)
(0.00330321 0.0774328 0)
(0.056339 0.0776295 0)
(0.108587 0.0733321 0)
(0.155316 0.0660445 0)
(0.197271 0.0567327 0)
(0.229097 0.0471927 0)
(0.25702 0.0376824 0)
(0.272682 0.0291866 0)
(0.287835 0.0213527 0)
(0.288365 0.0147511 0)
(0.29271 0.00847592 0)
(0.276854 0.00161866 0)
(0.27008 -0.0095209 0)
(0.231228 -0.0351314 0)
(0.217638 -0.0952188 0)
(0.150104 -0.229717 0)
(0.170652 -0.341495 0)
(0.130071 0.103818 0)
(0.158538 0.0754276 0)
(0.212511 0.05345 0)
(0.270997 0.0417945 0)
(0.323413 0.0360202 0)
(0.37559 0.0320008 0)
(0.419897 0.0289391 0)
(0.464923 0.0255913 0)
(0.497788 0.0229201 0)
(0.532865 0.0197403 0)
(0.552223 0.0175995 0)
(0.578033 0.0146804 0)
(0.58426 0.01326 0)
(0.602762 0.010458 0)
(0.594416 0.00951018 0)
(0.60318 0.00511373 0)
(0.567638 0.0001838 0)
(0.547729 -0.0182567 0)
(0.435946 -0.0504076 0)
(0.336879 -0.101406 0)
)
;

boundaryField
{
    movingWall
    {
        type            fixedValue;
        value           uniform (1 0 0);
    }
    fixedWalls
    {
        type            noSlip;
    }
    frontAndBack
    {
        type            empty;
    }
}


// ************************************************************************* //
