/*--------------------------------*- C++ -*----------------------------------*\
| =========                 |                                                 |
| \\      /  F ield         | OpenFOAM: The Open Source CFD Toolbox           |
|  \\    /   O peration     | Version:  2212                                  |
|   \\  /    A nd           | Website:  www.openfoam.com                      |
|    \\/     M anipulation  |                                                 |
\*---------------------------------------------------------------------------*/
FoamFile
{
    version     2.0;
    format      ascii;
    arch        "LSB;label=32;scalar=64";
    class       volVectorField;
    location    "4.365";
    object      U;
}
// * * * * * * * * * * * * * * * * * * * * * * * * * * * * * * * * * * * * * //

dimensions      [0 1 -1 0 0 0 0];

internalField   nonuniform List<vector> 
400
(
(0.00166439 -0.00166908 0)
(0.00478258 -0.0018737 0)
(0.00650383 -0.00119032 0)
(0.0055789 -0.00056812 0)
(0.00148682 0.000190365 0)
(-0.00687367 0.00173778 0)
(-0.0205707 0.00475651 0)
(-0.0393846 0.00867051 0)
(-0.0605353 0.0112192 0)
(-0.0787983 0.0104689 0)
(-0.0894854 0.00677123 0)
(-0.09021 0.00169731 0)
(-0.0800998 -0.0035643 0)
(-0.0600123 -0.00821444 0)
(-0.0336775 -0.0107946 0)
(-0.00554637 -0.00976882 0)
(0.016441 -0.00480363 0)
(0.0242465 0.00272595 0)
(0.0160781 0.00642221 0)
(0.0042995 0.00469136 0)
(0.00168842 -0.00499992 0)
(0.00307431 -0.00396256 0)
(-0.000531331 0.00061646 0)
(-0.0114076 0.00642792 0)
(-0.0313909 0.0139821 0)
(-0.0609248 0.0236276 0)
(-0.0964086 0.0328486 0)
(-0.130859 0.036883 0)
(-0.158285 0.0333765 0)
(-0.175404 0.0233574 0)
(-0.180801 0.00916141 0)
(-0.174522 -0.00685867 0)
(-0.15714 -0.0229818 0)
(-0.129387 -0.0366996 0)
(-0.0935153 -0.0443745 0)
(-0.0522566 -0.0417244 0)
(-0.0115753 -0.0263498 0)
(0.0166693 -0.00140814 0)
(0.0177441 0.0160783 0)
(0.00551932 0.0147351 0)
(-0.00026952 -0.00565755 0)
(-0.00543607 0.00090672 0)
(-0.0196246 0.0142836 0)
(-0.0443824 0.0310792 0)
(-0.0799889 0.0491501 0)
(-0.121599 0.0639356 0)
(-0.161542 0.0701618 0)
(-0.194327 0.0657246 0)
(-0.21784 0.0520131 0)
(-0.231486 0.0315034 0)
(-0.235274 0.00653548 0)
(-0.22986 -0.0208581 0)
(-0.215555 -0.0485129 0)
(-0.191856 -0.0728179 0)
(-0.158492 -0.0886429 0)
(-0.115427 -0.088957 0)
(-0.064461 -0.0669485 0)
(-0.0139124 -0.022829 0)
(0.00940376 0.0176893 0)
(0.00415247 0.0234435 0)
(-0.00347035 0.000593827 0)
(-0.0174667 0.0172908 0)
(-0.0433394 0.0413261 0)
(-0.0792784 0.0678011 0)
(-0.12228 0.0906185 0)
(-0.164936 0.103268 0)
(-0.200836 0.102389 0)
(-0.228035 0.0892861 0)
(-0.246792 0.0671052 0)
(-0.257712 0.0385473 0)
(-0.261632 0.00548563 0)
(-0.259357 -0.0307531 0)
(-0.250822 -0.0679358 0)
(-0.234981 -0.103129 0)
(-0.20984 -0.13087 0)
(-0.172697 -0.14237 0)
(-0.121001 -0.125461 0)
(-0.0567254 -0.0708627 0)
(-0.00104632 0.00331579 0)
(0.00473931 0.0280704 0)
(-0.00662868 0.0148624 0)
(-0.028569 0.044008 0)
(-0.0629169 0.0766931 0)
(-0.103819 0.108277 0)
(-0.146376 0.130452 0)
(-0.18348 0.137457 0)
(-0.211676 0.128871 0)
(-0.231343 0.108269 0)
(-0.243773 0.0795116 0)
(-0.250695 0.0453858 0)
(-0.253802 0.0074259 0)
(-0.254026 -0.0335679 0)
(-0.251145 -0.0764491 0)
(-0.244597 -0.11991 0)
(-0.231568 -0.159993 0)
(-0.207435 -0.188256 0)
(-0.166161 -0.189379 0)
(-0.103077 -0.142587 0)
(-0.0221731 -0.0389962 0)
(0.00733739 0.0269024 0)
(-0.00844904 0.0348132 0)
(-0.03493 0.0763253 0)
(-0.0725884 0.11431 0)
(-0.112491 0.146829 0)
(-0.149529 0.16509 0)
(-0.178235 0.165085 0)
(-0.197629 0.149003 0)
(-0.209249 0.121913 0)
(-0.215083 0.0881648 0)
(-0.21762 0.0507484 0)
(-0.218844 0.0111284 0)
(-0.219773 -0.0302874 0)
(-0.220609 -0.0739889 0)
(-0.221438 -0.120376 0)
(-0.220054 -0.16824 0)
(-0.211348 -0.212094 0)
(-0.187228 -0.237738 0)
(-0.139119 -0.217912 0)
(-0.0625838 -0.118701 0)
(0.00577107 0.0140556 0)
(-0.00821935 0.0567699 0)
(-0.0350562 0.109471 0)
(-0.0712859 0.149626 0)
(-0.106283 0.180113 0)
(-0.135733 0.192773 0)
(-0.156004 0.185459 0)
(-0.167776 0.162428 0)
(-0.173159 0.129814 0)
(-0.174565 0.0923951 0)
(-0.174516 0.0531984 0)
(-0.174548 0.0134631 0)
(-0.175355 -0.0267774 0)
(-0.17749 -0.0686941 0)
(-0.181487 -0.113604 0)
(-0.186676 -0.162644 0)
(-0.18939 -0.21466 0)
(-0.181711 -0.26064 0)
(-0.153644 -0.274321 0)
(-0.0989369 -0.205327 0)
(-0.00888698 -0.0147144 0)
(-0.00607081 0.0771829 0)
(-0.0295241 0.139803 0)
(-0.0609145 0.180158 0)
(-0.0891783 0.207093 0)
(-0.111035 0.213675 0)
(-0.124446 0.199439 0)
(-0.130985 0.170329 0)
(-0.132951 0.133324 0)
(-0.132811 0.0934392 0)
(-0.132535 0.0534073 0)
(-0.132835 0.0139555 0)
(-0.133908 -0.0253057 0)
(-0.136222 -0.0654382 0)
(-0.140471 -0.107717 0)
(-0.147251 -0.154165 0)
(-0.155211 -0.207154 0)
(-0.158319 -0.264681 0)
(-0.146189 -0.307106 0)
(-0.111812 -0.276387 0)
(-0.0307958 -0.0751186 0)
(-0.00268976 0.0930381 0)
(-0.0202095 0.164699 0)
(-0.044741 0.204376 0)
(-0.0657706 0.22721 0)
(-0.0809159 0.22818 0)
(-0.0892942 0.20828 0)
(-0.0927794 0.174629 0)
(-0.0935088 0.134726 0)
(-0.0935933 0.0936062 0)
(-0.0942274 0.0535324 0)
(-0.0954757 0.0146008 0)
(-0.0972502 -0.0239968 0)
(-0.0997317 -0.063084 0)
(-0.103432 -0.103409 0)
(-0.1095 -0.146661 0)
(-0.118651 -0.196833 0)
(-0.127678 -0.258339 0)
(-0.126081 -0.322275 0)
(-0.107129 -0.333718 0)
(-0.0371884 -0.16273 0)
(0.00122236 0.102067 0)
(-0.00882619 0.182385 0)
(-0.0253814 0.221796 0)
(-0.0392621 0.241272 0)
(-0.048652 0.238048 0)
(-0.053437 0.214149 0)
(-0.0552878 0.177473 0)
(-0.0558566 0.135892 0)
(-0.0566743 0.0943683 0)
(-0.0583034 0.0546351 0)
(-0.0605219 0.0162298 0)
(-0.0631829 -0.0219347 0)
(-0.0662854 -0.0605528 0)
(-0.0700212 -0.0999115 0)
(-0.0753366 -0.140784 0)
(-0.0838168 -0.186907 0)
(-0.0955283 -0.246647 0)
(-0.100363 -0.323014 0)
(-0.0949533 -0.371105 0)
(-0.0308436 -0.24166 0)
(0.00507529 0.10319 0)
(0.00296107 0.191886 0)
(-0.00530477 0.2322 0)
(-0.0123532 0.249221 0)
(-0.0166922 0.243145 0)
(-0.0185281 0.216996 0)
(-0.0191482 0.179003 0)
(-0.0195979 0.137037 0)
(-0.0208268 0.095815 0)
(-0.0230143 0.0566884 0)
(-0.0258663 0.0189179 0)
(-0.0293136 -0.0186775 0)
(-0.0333745 -0.0568315 0)
(-0.0380061 -0.0956728 0)
(-0.0437697 -0.135206 0)
(-0.0519356 -0.177945 0)
(-0.0654062 -0.233711 0)
(-0.0740961 -0.316654 0)
(-0.0810972 -0.395537 0)
(-0.0229089 -0.3061 0)
(0.00836096 0.0967565 0)
(0.0140974 0.192845 0)
(0.0139931 0.235685 0)
(0.0136099 0.251964 0)
(0.0142375 0.244887 0)
(0.0154394 0.21824 0)
(0.0163078 0.18026 0)
(0.0163699 0.138658 0)
(0.0152275 0.0979552 0)
(0.0129346 0.0594372 0)
(0.00976448 0.0223971 0)
(0.00568565 -0.0143418 0)
(0.000553553 -0.0516325 0)
(-0.00550514 -0.089645 0)
(-0.012899 -0.12807 0)
(-0.0218335 -0.16802 0)
(-0.0376088 -0.218617 0)
(-0.0487932 -0.302955 0)
(-0.0679256 -0.40731 0)
(-0.0144714 -0.358971 0)
(0.0101862 0.0839127 0)
(0.0231682 0.185299 0)
(0.0307766 0.231829 0)
(0.0366619 0.248521 0)
(0.0422801 0.241677 0)
(0.0471916 0.215958 0)
(0.0505811 0.17928 0)
(0.0521997 0.139002 0)
(0.0519998 0.099474 0)
(0.0502002 0.0620477 0)
(0.0470506 0.0262002 0)
(0.0424625 -0.00918147 0)
(0.0362606 -0.045037 0)
(0.0285467 -0.0816044 0)
(0.018544 -0.118559 0)
(0.00733909 -0.156207 0)
(-0.0119826 -0.202285 0)
(-0.0244862 -0.284927 0)
(-0.055969 -0.409867 0)
(-0.00618028 -0.40089 0)
(0.0097237 0.0668792 0)
(0.0286793 0.169633 0)
(0.0438779 0.220834 0)
(0.0563166 0.239762 0)
(0.0675142 0.234812 0)
(0.0771082 0.211514 0)
(0.0842315 0.177319 0)
(0.0885781 0.139122 0)
(0.0902284 0.101191 0)
(0.0894991 0.0651063 0)
(0.0867314 0.0307176 0)
(0.0817002 -0.00300653 0)
(0.0742639 -0.0366936 0)
(0.064693 -0.0709623 0)
(0.051645 -0.105645 0)
(0.0369113 -0.140682 0)
(0.0126785 -0.182206 0)
(-0.000326993 -0.261751 0)
(-0.0450083 -0.405672 0)
(0.00269355 -0.435411 0)
(0.00681571 0.0492917 0)
(0.0289691 0.148144 0)
(0.0505124 0.202407 0)
(0.0692299 0.223123 0)
(0.0865616 0.220227 0)
(0.102117 0.200131 0)
(0.114647 0.16965 0)
(0.123465 0.134917 0)
(0.12849 0.0999445 0)
(0.129987 0.0664338 0)
(0.128235 0.0346236 0)
(0.123305 0.00368659 0)
(0.114726 -0.0267419 0)
(0.103126 -0.0575351 0)
(0.086278 -0.0887695 0)
(0.0673396 -0.121093 0)
(0.0375762 -0.158995 0)
(0.0233687 -0.235788 0)
(-0.0347067 -0.39806 0)
(0.0133658 -0.463777 0)
(0.0023425 0.0347267 0)
(0.023294 0.123378 0)
(0.050324 0.178965 0)
(0.0758247 0.20172 0)
(0.100285 0.201338 0)
(0.122975 0.184979 0)
(0.142241 0.159028 0)
(0.156868 0.128751 0)
(0.166444 0.097765 0)
(0.171194 0.067773 0)
(0.17108 0.0393619 0)
(0.166825 0.01211 0)
(0.157058 -0.0143519 0)
(0.143462 -0.0407767 0)
(0.122422 -0.0674886 0)
(0.0991713 -0.0960498 0)
(0.0636746 -0.131157 0)
(0.0464686 -0.206361 0)
(-0.0230218 -0.386467 0)
(0.0283773 -0.485136 0)
(-0.00339867 0.028868 0)
(0.00982379 0.101292 0)
(0.036541 0.147989 0)
(0.0681287 0.168489 0)
(0.100767 0.169617 0)
(0.132242 0.157351 0)
(0.160006 0.13701 0)
(0.182332 0.112751 0)
(0.198191 0.087649 0)
(0.20795 0.0632352 0)
(0.210783 0.0402544 0)
(0.208476 0.0185646 0)
(0.198293 -0.00220223 0)
(0.183802 -0.0225587 0)
(0.15926 -0.0429915 0)
(0.132969 -0.0666042 0)
(0.0918641 -0.100517 0)
(0.0693445 -0.179132 0)
(-0.0046673 -0.369668 0)
(0.0520123 -0.491433 0)
(-0.0138403 0.0187667 0)
(-0.00750089 0.0882154 0)
(0.0188687 0.123849 0)
(0.0557678 0.136712 0)
(0.0965837 0.136176 0)
(0.136642 0.126975 0)
(0.172598 0.112371 0)
(0.202169 0.0946908 0)
(0.223851 0.0763577 0)
(0.238758 0.0583731 0)
(0.244713 0.0417007 0)
(0.24559 0.0262073 0)
(0.236364 0.0120671 0)
(0.224684 -0.00155361 0)
(0.199989 -0.0154333 0)
(0.176388 -0.0342954 0)
(0.132487 -0.0670669 0)
(0.107291 -0.145572 0)
(0.0372245 -0.326064 0)
(0.0922676 -0.455848 0)
(-0.1059 0.0825942 0)
(-0.0776595 0.0691321 0)
(-0.0486147 0.0732407 0)
(0.00347235 0.0775937 0)
(0.0566717 0.0778342 0)
(0.109082 0.0735436 0)
(0.155955 0.0662352 0)
(0.198039 0.0568881 0)
(0.229951 0.0473004 0)
(0.257938 0.0377409 0)
(0.273611 0.0291903 0)
(0.288754 0.0213096 0)
(0.289219 0.0146619 0)
(0.293484 0.00835585 0)
(0.277485 0.00146651 0)
(0.270575 -0.00967173 0)
(0.231583 -0.035267 0)
(0.217807 -0.0952844 0)
(0.150145 -0.229721 0)
(0.170661 -0.341486 0)
(0.130036 0.103792 0)
(0.158463 0.0753583 0)
(0.212393 0.053374 0)
(0.270889 0.0417368 0)
(0.323361 0.0359852 0)
(0.37563 0.0319844 0)
(0.420034 0.0289324 0)
(0.465156 0.0255884 0)
(0.498095 0.0229146 0)
(0.533225 0.0197306 0)
(0.552606 0.0175828 0)
(0.578412 0.0146581 0)
(0.584607 0.0132304 0)
(0.603056 0.0104236 0)
(0.594636 0.00947148 0)
(0.603319 0.00507898 0)
(0.567694 0.000154201 0)
(0.547703 -0.0182764 0)
(0.435874 -0.0504119 0)
(0.336843 -0.101402 0)
)
;

boundaryField
{
    movingWall
    {
        type            fixedValue;
        value           uniform (1 0 0);
    }
    fixedWalls
    {
        type            noSlip;
    }
    frontAndBack
    {
        type            empty;
    }
}


// ************************************************************************* //
