/*--------------------------------*- C++ -*----------------------------------*\
| =========                 |                                                 |
| \\      /  F ield         | OpenFOAM: The Open Source CFD Toolbox           |
|  \\    /   O peration     | Version:  2212                                  |
|   \\  /    A nd           | Website:  www.openfoam.com                      |
|    \\/     M anipulation  |                                                 |
\*---------------------------------------------------------------------------*/
FoamFile
{
    version     2.0;
    format      ascii;
    arch        "LSB;label=32;scalar=64";
    class       surfaceScalarField;
    location    "2.325";
    object      phi;
}
// * * * * * * * * * * * * * * * * * * * * * * * * * * * * * * * * * * * * * //

dimensions      [0 3 -1 0 0 0 0];

oriented        oriented;

internalField   nonuniform List<scalar> 
760
(
1.21652e-07
-1.21653e-07
2.20308e-07
-9.86556e-08
2.20258e-07
4.94827e-11
1.00224e-07
1.20034e-07
-1.7626e-07
2.76484e-07
-6.62997e-07
4.86737e-07
-1.38942e-06
7.26419e-07
-2.29095e-06
9.01533e-07
-3.19768e-06
9.0673e-07
-3.89788e-06
7.002e-07
-4.22533e-06
3.27449e-07
-4.08429e-06
-1.41038e-07
-3.4072e-06
-6.77088e-07
-2.29658e-06
-1.11062e-06
-9.65648e-07
-1.33093e-06
2.36404e-07
-1.20205e-06
9.50576e-07
-7.14171e-07
9.31303e-07
1.92726e-08
4.21141e-07
5.10162e-07
4.21141e-07
7.03474e-08
-1.92001e-07
-2.02833e-08
-8.02434e-09
-3.69883e-07
3.49649e-07
-1.06734e-06
8.17496e-07
-2.16081e-06
1.36995e-06
-3.60031e-06
1.92623e-06
-5.18762e-06
2.31373e-06
-6.6449e-06
2.35881e-06
-7.74457e-06
2.0064e-06
-8.36075e-06
1.31637e-06
-8.43875e-06
4.05456e-07
-7.94646e-06
-6.33324e-07
-6.91379e-06
-1.70977e-06
-5.3718e-06
-2.65261e-06
-3.45774e-06
-3.24499e-06
-1.46124e-06
-3.19856e-06
1.14305e-07
-2.28972e-06
7.76164e-07
-6.42587e-07
4.85312e-07
8.01014e-07
9.06453e-07
-1.59725e-07
-3.22755e-08
-6.41645e-07
4.73896e-07
-1.53094e-06
1.23895e-06
-2.87472e-06
2.16128e-06
-4.59707e-06
3.0923e-06
-6.46196e-06
3.79112e-06
-8.18128e-06
4.03305e-06
-9.56015e-06
3.73769e-06
-1.0522e-05
2.96823e-06
-1.10464e-05
1.84081e-06
-1.10899e-05
4.48935e-07
-1.06792e-05
-1.044e-06
-9.80876e-06
-2.58023e-06
-8.42896e-06
-4.03241e-06
-6.52106e-06
-5.15289e-06
-4.1795e-06
-5.54012e-06
-1.78546e-06
-4.68375e-06
-9.12388e-08
-2.33681e-06
2.81282e-07
4.28493e-07
1.18774e-06
-4.62922e-07
4.30647e-07
-1.42205e-06
1.43302e-06
-2.8116e-06
2.62851e-06
-4.58106e-06
3.93073e-06
-6.53275e-06
5.04399e-06
-8.39348e-06
5.65185e-06
-9.9511e-06
5.59067e-06
-1.11281e-05
4.91465e-06
-1.19339e-05
3.77406e-06
-1.2395e-05
2.3019e-06
-1.24985e-05
5.52422e-07
-1.22888e-05
-1.25364e-06
-1.17429e-05
-3.12619e-06
-1.07626e-05
-5.01273e-06
-9.22383e-06
-6.69161e-06
-7.00834e-06
-7.75562e-06
-4.16838e-06
-7.5237e-06
-1.30568e-06
-5.19952e-06
1.1414e-07
-9.91324e-07
1.30188e-06
-7.63627e-07
1.19427e-06
-2.09878e-06
2.76817e-06
-3.78253e-06
4.31225e-06
-5.67456e-06
5.82276e-06
-7.53609e-06
6.90552e-06
-9.14279e-06
7.25856e-06
-1.0386e-05
6.8339e-06
-1.12638e-05
5.79247e-06
-1.18241e-05
4.33432e-06
-1.21326e-05
2.61045e-06
-1.22685e-05
6.88292e-07
-1.22404e-05
-1.28171e-06
-1.20378e-05
-3.32883e-06
-1.15819e-05
-5.4686e-06
-1.06925e-05
-7.58106e-06
-9.0914e-06
-9.35669e-06
-6.50392e-06
-1.01112e-05
-3.05099e-06
-8.65245e-06
-2.48798e-07
-3.79352e-06
1.05308e-06
-9.48065e-07
2.14234e-06
-2.46317e-06
4.28328e-06
-4.19287e-06
6.04195e-06
-5.9498e-06
7.57969e-06
-7.52288e-06
8.47861e-06
-8.76069e-06
8.49637e-06
-9.62424e-06
7.69745e-06
-1.01557e-05
6.32393e-06
-1.0434e-05
4.61267e-06
-1.05556e-05
2.73205e-06
-1.06395e-05
7.72135e-07
-1.06995e-05
-1.22168e-06
-1.07421e-05
-3.28624e-06
-1.07411e-05
-5.46959e-06
-1.05427e-05
-7.77946e-06
-9.82086e-06
-1.00786e-05
-8.09652e-06
-1.18355e-05
-4.99001e-06
-1.17589e-05
-1.09421e-06
-7.68932e-06
-4.11317e-08
-9.64689e-07
3.10703e-06
-2.44548e-06
5.76407e-06
-4.01958e-06
7.61605e-06
-5.49481e-06
9.05492e-06
-6.71193e-06
9.69573e-06
-7.58203e-06
9.36646e-06
-8.11116e-06
8.22659e-06
-8.3674e-06
6.58017e-06
-8.44707e-06
4.69233e-06
-8.44998e-06
2.73496e-06
-8.46762e-06
7.89774e-07
-8.53462e-06
-1.15467e-06
-8.67216e-06
-3.1487e-06
-8.89464e-06
-5.24712e-06
-9.14155e-06
-7.53255e-06
-9.17093e-06
-1.00492e-05
-8.46111e-06
-1.25453e-05
-6.28357e-06
-1.39365e-05
-2.29782e-06
-1.16751e-05
-2.33895e-06
-8.13325e-07
3.92035e-06
-2.08965e-06
7.0404e-06
-3.38824e-06
8.91464e-06
-4.53188e-06
1.01986e-05
-5.41219e-06
1.0576e-05
-5.98845e-06
9.94272e-06
-6.29321e-06
8.53134e-06
-6.4036e-06
6.69056e-06
-6.41279e-06
4.70152e-06
-6.40149e-06
2.72366e-06
-6.41695e-06
8.05235e-07
-6.48179e-06
-1.08983e-06
-6.62328e-06
-3.00721e-06
-6.87887e-06
-4.99154e-06
-7.26657e-06
-7.14484e-06
-7.68499e-06
-9.63076e-06
-7.70527e-06
-1.25251e-05
-6.51001e-06
-1.51318e-05
-3.41598e-06
-1.47691e-05
-5.75493e-06
-5.42627e-07
4.46298e-06
-1.50688e-06
8.00465e-06
-2.47846e-06
9.88622e-06
-3.29327e-06
1.10134e-05
-3.88702e-06
1.11698e-05
-4.25273e-06
1.03084e-05
-4.43328e-06
8.71189e-06
-4.49839e-06
6.75568e-06
-4.52119e-06
4.72432e-06
-4.55187e-06
2.75434e-06
-4.60683e-06
8.6019e-07
-4.69355e-06
-1.00311e-06
-4.82772e-06
-2.87303e-06
-5.04586e-06
-4.7734e-06
-5.41269e-06
-6.77801e-06
-5.93911e-06
-9.10434e-06
-6.38066e-06
-1.20835e-05
-5.9748e-06
-1.55376e-05
-3.80252e-06
-1.69414e-05
-9.55745e-06
-2.00912e-07
4.66389e-06
-7.9966e-07
8.6034e-06
-1.43001e-06
1.05166e-05
-1.93965e-06
1.1523e-05
-2.29366e-06
1.15238e-05
-2.50687e-06
1.05217e-05
-2.62066e-06
8.82568e-06
-2.68538e-06
6.82039e-06
-2.74582e-06
4.78477e-06
-2.82764e-06
2.83616e-06
-2.93453e-06
9.67079e-07
-3.06489e-06
-8.72759e-07
-3.22158e-06
-2.71634e-06
-3.4241e-06
-4.57087e-06
-3.73746e-06
-6.46465e-06
-4.25282e-06
-8.58898e-06
-4.89668e-06
-1.14397e-05
-5.03036e-06
-1.54039e-05
-3.49014e-06
-1.84816e-05
-1.30476e-05
1.42897e-07
4.521e-06
-6.16217e-08
8.80792e-06
-3.68286e-07
1.08232e-05
-6.02218e-07
1.17569e-05
-7.43861e-07
1.16654e-05
-8.20459e-07
1.05982e-05
-8.71016e-07
8.87623e-06
-9.29719e-07
6.8791e-06
-1.01428e-06
4.86932e-06
-1.1309e-06
2.95279e-06
-1.27955e-06
1.11572e-06
-1.46027e-06
-6.92033e-07
-1.67315e-06
-2.50346e-06
-1.91838e-06
-4.32565e-06
-2.23687e-06
-6.14616e-06
-2.73863e-06
-8.08722e-06
-3.47901e-06
-1.06993e-05
-3.97898e-06
-1.4904e-05
-2.9929e-06
-1.94677e-05
-1.60405e-05
4.29857e-07
4.09114e-06
6.09826e-07
8.62795e-06
6.58169e-07
1.07749e-05
7.10605e-07
1.17045e-05
7.81531e-07
1.15945e-05
8.3894e-07
1.05408e-05
8.55275e-07
8.8599e-06
8.19445e-07
6.91493e-06
7.32791e-07
4.95598e-06
6.01805e-07
3.08377e-06
4.25729e-07
1.2918e-06
1.99888e-07
-4.66192e-07
-7.48688e-08
-2.2287e-06
-4.12999e-07
-3.98752e-06
-8.19686e-07
-5.73947e-06
-1.35741e-06
-7.54949e-06
-2.17947e-06
-9.87723e-06
-2.95766e-06
-1.41258e-05
-2.4635e-06
-1.99618e-05
-1.8504e-05
6.39014e-07
3.45212e-06
1.17472e-06
8.09225e-06
1.54793e-06
1.04017e-05
1.88653e-06
1.13659e-05
2.193e-06
1.12881e-05
2.42096e-06
1.03129e-05
2.54652e-06
8.73434e-06
2.57406e-06
6.88739e-06
2.51999e-06
5.01005e-06
2.39695e-06
3.20681e-06
2.20446e-06
1.48429e-06
1.928e-06
-1.89739e-07
1.56932e-06
-1.87002e-06
1.12604e-06
-3.54424e-06
5.90454e-07
-5.20388e-06
-9.99433e-08
-6.8591e-06
-9.9772e-07
-8.97945e-06
-1.97968e-06
-1.31438e-05
-1.9541e-06
-1.99874e-05
-2.04581e-05
7.25316e-07
2.72681e-06
1.55393e-06
7.26364e-06
2.24123e-06
9.71437e-06
2.87287e-06
1.07343e-05
3.44507e-06
1.07159e-05
3.89847e-06
9.85948e-06
4.19775e-06
8.43506e-06
4.34573e-06
6.73941e-06
4.3645e-06
4.99128e-06
4.27351e-06
3.2978e-06
4.07547e-06
1.68233e-06
3.75628e-06
1.29455e-07
3.31266e-06
-1.4264e-06
2.73827e-06
-2.96986e-06
2.03291e-06
-4.49852e-06
1.20884e-06
-6.03503e-06
1.58409e-07
-7.92901e-06
-1.06544e-06
-1.192e-05
-1.47836e-06
-1.95745e-05
-2.19365e-05
6.61057e-07
2.06575e-06
1.65041e-06
6.27429e-06
2.59856e-06
8.76622e-06
3.53025e-06
9.80257e-06
4.4083e-06
9.8378e-06
5.15245e-06
9.11533e-06
5.70333e-06
7.88418e-06
6.04865e-06
6.3941e-06
6.20461e-06
4.83532e-06
6.19191e-06
3.3105e-06
6.01653e-06
1.85771e-06
5.67188e-06
4.74105e-07
5.13945e-06
-8.93965e-07
4.42511e-06
-2.25551e-06
3.52591e-06
-3.59933e-06
2.47405e-06
-4.98318e-06
1.21444e-06
-6.6694e-06
-2.6398e-07
-1.04415e-05
-9.94753e-07
-1.88437e-05
-2.29312e-05
4.6214e-07
1.60361e-06
1.45354e-06
5.28289e-06
2.64504e-06
7.57472e-06
3.89636e-06
8.55126e-06
5.11616e-06
8.618e-06
6.19559e-06
8.0359e-06
7.04997e-06
7.0298e-06
7.64812e-06
5.79594e-06
7.99328e-06
4.49016e-06
8.10117e-06
3.2026e-06
7.98068e-06
1.9782e-06
7.63459e-06
8.20198e-07
7.02278e-06
-2.82158e-07
6.16898e-06
-1.40171e-06
5.06518e-06
-2.49552e-06
3.76245e-06
-3.68046e-06
2.30988e-06
-5.21682e-06
7.46989e-07
-8.87866e-06
-2.45844e-07
-1.78509e-05
-2.31771e-05
8.30914e-08
1.52052e-06
7.79099e-07
4.58688e-06
2.07237e-06
6.28144e-06
3.63775e-06
6.98588e-06
5.25386e-06
7.00189e-06
6.73548e-06
6.55428e-06
7.96369e-06
5.80159e-06
8.8908e-06
4.86883e-06
9.49945e-06
3.88151e-06
9.79818e-06
2.90388e-06
9.78964e-06
1.98674e-06
9.4837e-06
1.12614e-06
8.86188e-06
3.39658e-07
7.9143e-06
-4.54131e-07
6.66657e-06
-1.2478e-06
5.16821e-06
-2.1821e-06
3.57569e-06
-3.62429e-06
2.03029e-06
-7.33326e-06
5.69582e-07
-1.63902e-05
-2.26075e-05
-4.76599e-07
1.99712e-06
7.80052e-08
4.03227e-06
1.38721e-06
4.97223e-06
3.21177e-06
5.16132e-06
5.18066e-06
5.033e-06
7.02016e-06
4.71478e-06
8.58139e-06
4.24036e-06
9.8077e-06
3.64253e-06
1.06664e-05
3.02276e-06
1.11692e-05
2.40107e-06
1.13176e-05
1.83836e-06
1.11348e-05
1.30898e-06
1.06304e-05
8.44076e-07
9.80853e-06
3.67715e-07
8.68441e-06
-1.23682e-07
7.30843e-06
-8.06119e-07
5.87702e-06
-2.19287e-06
4.23744e-06
-5.69368e-06
1.96284e-06
-1.41156e-05
-2.06446e-05
-4.13816e-06
6.13528e-06
-3.65652e-06
3.55063e-06
-1.43757e-06
2.75328e-06
1.14018e-06
2.58357e-06
3.67465e-06
2.49853e-06
6.04771e-06
2.34171e-06
8.1551e-06
2.13297e-06
9.93187e-06
1.86576e-06
1.13493e-05
1.60534e-06
1.24246e-05
1.32572e-06
1.31693e-05
1.09373e-06
1.36246e-05
8.53653e-07
1.37866e-05
6.82088e-07
1.36787e-05
4.75588e-07
1.32659e-05
2.89091e-07
1.25655e-05
-1.05688e-07
1.16066e-05
-1.23397e-06
9.96686e-06
-4.05394e-06
5.57711e-06
-9.72584e-06
-1.50675e-05
6.13528e-06
9.68591e-06
1.24392e-05
1.50228e-05
1.75213e-05
1.9863e-05
2.1996e-05
2.38617e-05
2.54671e-05
2.67928e-05
2.78865e-05
2.87402e-05
2.94223e-05
2.98979e-05
3.0187e-05
3.00813e-05
2.88473e-05
2.47934e-05
1.50675e-05
)
;

boundaryField
{
    movingWall
    {
        type            calculated;
        value           uniform 0;
    }
    fixedWalls
    {
        type            calculated;
        value           uniform 0;
    }
    frontAndBack
    {
        type            empty;
        value           nonuniform List<scalar> 0();
    }
}


// ************************************************************************* //
