/*--------------------------------*- C++ -*----------------------------------*\
| =========                 |                                                 |
| \\      /  F ield         | OpenFOAM: The Open Source CFD Toolbox           |
|  \\    /   O peration     | Version:  2212                                  |
|   \\  /    A nd           | Website:  www.openfoam.com                      |
|    \\/     M anipulation  |                                                 |
\*---------------------------------------------------------------------------*/
FoamFile
{
    version     2.0;
    format      ascii;
    arch        "LSB;label=32;scalar=64";
    class       surfaceScalarField;
    location    "2.77";
    object      phi;
}
// * * * * * * * * * * * * * * * * * * * * * * * * * * * * * * * * * * * * * //

dimensions      [0 3 -1 0 0 0 0];

oriented        oriented;

internalField   nonuniform List<scalar> 
760
(
1.40066e-07
-1.40068e-07
2.59936e-07
-1.19869e-07
2.69098e-07
-9.16263e-09
1.45259e-07
1.2384e-07
-1.4612e-07
2.91379e-07
-6.63408e-07
5.17288e-07
-1.43686e-06
7.73452e-07
-2.39041e-06
9.53552e-07
-3.33888e-06
9.48469e-07
-4.06099e-06
7.22109e-07
-4.39029e-06
3.29299e-07
-4.23114e-06
-1.59152e-07
-3.51977e-06
-7.11369e-07
-2.36252e-06
-1.15725e-06
-9.79072e-07
-1.38345e-06
2.69445e-07
-1.24852e-06
1.00721e-06
-7.37766e-07
9.78301e-07
2.89108e-08
4.40647e-07
5.37653e-07
4.40647e-07
9.97052e-08
-2.39773e-07
3.13103e-08
-5.14745e-08
-3.30214e-07
3.52361e-07
-1.07229e-06
8.6592e-07
-2.24058e-06
1.45966e-06
-3.76759e-06
2.0443e-06
-5.42756e-06
2.43342e-06
-6.92529e-06
2.45129e-06
-8.03683e-06
2.06e-06
-8.64658e-06
1.33187e-06
-8.70435e-06
3.87063e-07
-8.1829e-06
-6.80598e-07
-7.11262e-06
-1.78165e-06
-5.5234e-06
-2.74647e-06
-3.55345e-06
-3.35341e-06
-1.49744e-06
-3.30452e-06
1.28511e-07
-2.36372e-06
8.09167e-07
-6.51745e-07
5.0363e-07
8.43189e-07
9.44277e-07
-1.41855e-07
-9.7918e-08
-6.37161e-07
4.43832e-07
-1.58005e-06
1.29525e-06
-3.01385e-06
2.29971e-06
-4.83408e-06
3.2799e-06
-6.76997e-06
3.98019e-06
-8.51999e-06
4.18344e-06
-9.89946e-06
3.83076e-06
-1.08481e-05
3.00868e-06
-1.13544e-05
1.83815e-06
-1.13728e-05
4.05464e-07
-1.09418e-05
-1.11166e-06
-1.00482e-05
-2.67519e-06
-8.63892e-06
-4.15577e-06
-6.69287e-06
-5.29945e-06
-4.2982e-06
-5.69919e-06
-1.84266e-06
-4.81926e-06
-9.63181e-08
-2.39809e-06
2.8691e-07
4.59961e-07
1.23119e-06
-4.83237e-07
3.85319e-07
-1.49489e-06
1.45549e-06
-2.97273e-06
2.77309e-06
-4.83888e-06
4.16586e-06
-6.86009e-06
5.30111e-06
-8.74487e-06
5.86496e-06
-1.02888e-05
5.72741e-06
-1.14376e-05
4.97954e-06
-1.22135e-05
3.78454e-06
-1.2649e-05
2.2737e-06
-1.27327e-05
4.89109e-07
-1.25132e-05
-1.33114e-06
-1.19588e-05
-3.2296e-06
-1.09684e-05
-5.14611e-06
-9.4127e-06
-6.85518e-06
-7.16948e-06
-7.94241e-06
-4.28088e-06
-7.70786e-06
-1.34733e-06
-5.33164e-06
1.15496e-07
-1.00286e-06
1.34668e-06
-8.15278e-07
1.2006e-06
-2.23583e-06
2.87604e-06
-4.01398e-06
4.55124e-06
-5.97765e-06
6.12954e-06
-7.86423e-06
7.18768e-06
-9.45195e-06
7.45269e-06
-1.06534e-05
6.92884e-06
-1.1486e-05
5.81212e-06
-1.20077e-05
4.30625e-06
-1.22896e-05
2.55564e-06
-1.24172e-05
6.1671e-07
-1.23876e-05
-1.36078e-06
-1.21883e-05
-3.42891e-06
-1.17388e-05
-5.59557e-06
-1.08542e-05
-7.73985e-06
-9.25057e-06
-9.54601e-06
-6.64081e-06
-1.03176e-05
-3.13341e-06
-8.83905e-06
-2.58433e-07
-3.87784e-06
1.08825e-06
-1.01965e-06
2.22024e-06
-2.62762e-06
4.48401e-06
-4.43614e-06
6.35977e-06
-6.23164e-06
7.92503e-06
-7.79631e-06
8.75236e-06
-8.99212e-06
8.6485e-06
-9.80284e-06
7.73956e-06
-1.02864e-05
6.29571e-06
-1.05302e-05
4.55004e-06
-1.0634e-05
2.65945e-06
-1.07175e-05
7.00189e-07
-1.07814e-05
-1.29684e-06
-1.08348e-05
-3.37553e-06
-1.08471e-05
-5.58332e-06
-1.06617e-05
-7.92521e-06
-9.9506e-06
-1.02571e-05
-8.22792e-06
-1.20403e-05
-5.09794e-06
-1.1969e-05
-1.1259e-06
-7.84987e-06
-3.76533e-08
-1.03872e-06
3.25897e-06
-2.60239e-06
6.04768e-06
-4.23193e-06
7.98931e-06
-5.72311e-06
9.41621e-06
-6.91682e-06
9.94607e-06
-7.74062e-06
9.4723e-06
-8.22089e-06
8.21984e-06
-8.43879e-06
6.51361e-06
-8.49657e-06
4.60782e-06
-8.49421e-06
2.65708e-06
-8.51916e-06
7.25138e-07
-8.59766e-06
-1.21834e-06
-8.74845e-06
-3.22475e-06
-8.98221e-06
-5.34956e-06
-9.23682e-06
-7.6706e-06
-9.27263e-06
-1.02213e-05
-8.56779e-06
-1.27451e-05
-6.38286e-06
-1.4154e-05
-2.35134e-06
-1.18814e-05
-2.38899e-06
-8.74323e-07
4.13329e-06
-2.2165e-06
7.38986e-06
-3.55248e-06
9.32529e-06
-4.70083e-06
1.05646e-05
-5.5574e-06
1.08026e-05
-6.09592e-06
1.00108e-05
-6.36462e-06
8.48854e-06
-6.45052e-06
6.5995e-06
-6.45083e-06
4.60813e-06
-6.44309e-06
2.64935e-06
-6.46861e-06
7.50665e-07
-6.54722e-06
-1.13973e-06
-6.70268e-06
-3.06929e-06
-6.96794e-06
-5.0843e-06
-7.35832e-06
-7.28022e-06
-7.77323e-06
-9.80639e-06
-7.78953e-06
-1.27288e-05
-6.59035e-06
-1.53531e-05
-3.48524e-06
-1.49865e-05
-5.87424e-06
-5.83197e-07
4.71649e-06
-1.59509e-06
8.40175e-06
-2.59252e-06
1.03227e-05
-3.41029e-06
1.13823e-05
-3.98893e-06
1.13813e-05
-4.33161e-06
1.03535e-05
-4.49145e-06
8.64838e-06
-4.54508e-06
6.65313e-06
-4.56681e-06
4.62986e-06
-4.60395e-06
2.68649e-06
-4.66859e-06
8.15297e-07
-4.76732e-06
-1.041e-06
-4.91288e-06
-2.92372e-06
-5.1385e-06
-4.85869e-06
-5.50418e-06
-6.91453e-06
-6.02e-06
-9.29058e-06
-6.44917e-06
-1.22997e-05
-6.03707e-06
-1.57653e-05
-3.85174e-06
-1.71718e-05
-9.72597e-06
-2.16569e-07
4.93306e-06
-8.46215e-07
9.03139e-06
-1.49574e-06
1.09723e-05
-2.01181e-06
1.18984e-05
-2.36329e-06
1.17328e-05
-2.57053e-06
1.05608e-05
-2.67947e-06
8.75731e-06
-2.74315e-06
6.71681e-06
-2.80763e-06
4.69435e-06
-2.89618e-06
2.77504e-06
-3.01062e-06
9.29742e-07
-3.14906e-06
-9.02572e-07
-3.31294e-06
-2.75983e-06
-3.51934e-06
-4.6523e-06
-3.82905e-06
-6.60482e-06
-4.32904e-06
-8.79059e-06
-4.95232e-06
-1.16764e-05
-5.07309e-06
-1.56445e-05
-3.52084e-06
-1.87241e-05
-1.32468e-05
1.52634e-07
4.78042e-06
-6.90391e-08
9.25307e-06
-3.9112e-07
1.12943e-05
-6.35876e-07
1.21431e-05
-7.86429e-07
1.18833e-05
-8.72208e-07
1.06465e-05
-9.32698e-07
8.8178e-06
-1.0006e-06
6.78471e-06
-1.09258e-06
4.78633e-06
-1.21523e-06
2.89769e-06
-1.36849e-06
1.083e-06
-1.5526e-06
-7.18458e-07
-1.76596e-06
-2.54648e-06
-2.01069e-06
-4.40757e-06
-2.32256e-06
-6.29295e-06
-2.80736e-06
-8.30578e-06
-3.523e-06
-1.09607e-05
-4.00631e-06
-1.51612e-05
-3.01115e-06
-1.97193e-05
-1.6258e-05
4.64596e-07
4.31583e-06
6.50198e-07
9.06747e-06
6.89658e-07
1.12549e-05
7.24616e-07
1.21082e-05
7.71574e-07
1.18363e-05
8.031e-07
1.0615e-05
7.96893e-07
8.82401e-06
7.44008e-07
6.83759e-06
6.47005e-07
4.88333e-06
5.10582e-07
3.03411e-06
3.32668e-07
1.26091e-06
1.08493e-07
-4.94283e-07
-1.65591e-07
-2.27239e-06
-4.94729e-07
-4.07843e-06
-8.90246e-07
-5.89743e-06
-1.41009e-06
-7.78594e-06
-2.20589e-06
-1.01649e-05
-2.96717e-06
-1.43999e-05
-2.46833e-06
-2.02181e-05
-1.87263e-05
6.97416e-07
3.61841e-06
1.26072e-06
8.50416e-06
1.6362e-06
1.08794e-05
1.9578e-06
1.17866e-05
2.23055e-06
1.15636e-05
2.41862e-06
1.04269e-05
2.50916e-06
8.73347e-06
2.51225e-06
6.8345e-06
2.44451e-06
4.95108e-06
2.31671e-06
3.16191e-06
2.12507e-06
1.45256e-06
1.85561e-06
-2.24822e-07
1.50742e-06
-1.92421e-06
1.07501e-06
-3.64602e-06
5.52157e-07
-5.37458e-06
-1.21699e-07
-7.11208e-06
-9.98992e-07
-9.28764e-06
-1.96535e-06
-1.34335e-05
-1.94742e-06
-2.0236e-05
-2.06737e-05
7.98903e-07
2.81951e-06
1.68116e-06
7.6219e-06
2.38909e-06
1.01715e-05
3.01188e-06
1.11638e-05
3.55221e-06
1.10233e-05
3.96116e-06
1.0018e-05
4.21732e-06
8.47731e-06
4.33304e-06
6.71878e-06
4.33339e-06
4.95074e-06
4.23641e-06
3.25889e-06
4.04164e-06
1.64733e-06
3.72849e-06
8.83185e-08
3.29822e-06
-1.49393e-06
2.7362e-06
-3.084e-06
2.041e-06
-4.67938e-06
1.22526e-06
-6.29634e-06
1.89208e-07
-8.25159e-06
-1.02759e-06
-1.22167e-05
-1.46053e-06
-1.98031e-05
-2.21342e-05
7.3583e-07
2.08368e-06
1.80527e-06
6.55246e-06
2.79627e-06
9.18048e-06
3.73801e-06
1.02221e-05
4.59734e-06
1.01639e-05
5.30342e-06
9.31191e-06
5.81155e-06
7.96918e-06
6.12177e-06
6.40856e-06
6.25596e-06
4.81655e-06
6.23504e-06
3.27981e-06
6.06104e-06
1.82133e-06
5.72351e-06
4.25845e-07
5.20214e-06
-9.72558e-07
4.49681e-06
-2.37867e-06
3.60146e-06
-3.78403e-06
2.5462e-06
-5.24108e-06
1.28013e-06
-6.98552e-06
-2.18555e-07
-1.07181e-05
-9.60963e-07
-1.90607e-05
-2.30952e-05
5.22948e-07
1.56073e-06
1.61395e-06
5.46146e-06
2.8794e-06
7.91503e-06
4.17503e-06
8.92642e-06
5.40461e-06
8.93435e-06
6.46616e-06
8.25035e-06
7.28873e-06
7.14661e-06
7.85524e-06
5.84205e-06
8.1771e-06
4.49468e-06
8.27252e-06
3.18439e-06
8.14862e-06
1.94523e-06
7.80384e-06
7.70626e-07
7.19534e-06
-3.64057e-07
6.34025e-06
-1.52357e-06
5.22728e-06
-2.67107e-06
3.90282e-06
-3.91662e-06
2.42321e-06
-5.50591e-06
8.41029e-07
-9.13587e-06
-1.99511e-07
-1.80201e-05
-2.32947e-05
1.19987e-07
1.44074e-06
9.19124e-07
4.66232e-06
2.30944e-06
6.52471e-06
3.95389e-06
7.28197e-06
5.61679e-06
7.27146e-06
7.11207e-06
6.75507e-06
8.33185e-06
5.92683e-06
9.24183e-06
4.93207e-06
9.83424e-06
3.90227e-06
1.01214e-05
2.89722e-06
1.01078e-05
1.95889e-06
9.79977e-06
1.07861e-06
9.16517e-06
2.70545e-07
8.20533e-06
-5.63731e-07
6.92895e-06
-1.39469e-06
5.38652e-06
-2.3742e-06
3.73444e-06
-3.85382e-06
2.13141e-06
-7.53285e-06
6.10143e-07
-1.64989e-05
-2.26846e-05
-4.95536e-07
1.93628e-06
1.47153e-07
4.01963e-06
1.59111e-06
5.08076e-06
3.54323e-06
5.32985e-06
5.60674e-06
5.20795e-06
7.50182e-06
4.86e-06
9.08719e-06
4.34146e-06
1.03178e-05
3.70146e-06
1.11714e-05
3.04872e-06
1.16645e-05
2.40411e-06
1.18005e-05
1.82282e-06
1.16004e-05
1.27869e-06
1.10785e-05
7.92445e-07
1.0223e-05
2.91793e-07
9.04112e-06
-2.12783e-07
7.59448e-06
-9.27555e-07
6.07364e-06
-2.33298e-06
4.34934e-06
-5.80855e-06
2.01047e-06
-1.416e-05
-2.06741e-05
-4.15773e-06
6.09401e-06
-3.64263e-06
3.50452e-06
-1.3274e-06
2.76553e-06
1.36986e-06
2.6326e-06
4.01294e-06
2.56487e-06
6.46691e-06
2.40602e-06
8.62436e-06
2.18401e-06
1.04247e-05
1.90109e-06
1.18479e-05
1.62551e-06
1.29174e-05
1.33466e-06
1.36483e-05
1.09189e-06
1.40831e-05
8.43924e-07
1.42133e-05
6.6221e-07
1.40549e-05
4.50192e-07
1.35872e-05
2.5494e-07
1.28254e-05
-1.65772e-07
1.1776e-05
-1.28354e-06
1.00484e-05
-4.08101e-06
5.61145e-06
-9.72303e-06
-1.50626e-05
6.09401e-06
9.59854e-06
1.23641e-05
1.49967e-05
1.75615e-05
1.99676e-05
2.21516e-05
2.40527e-05
2.56782e-05
2.70128e-05
2.81047e-05
2.89486e-05
2.96108e-05
3.0061e-05
3.0316e-05
3.01502e-05
2.88667e-05
2.47857e-05
1.50626e-05
)
;

boundaryField
{
    movingWall
    {
        type            calculated;
        value           uniform 0;
    }
    fixedWalls
    {
        type            calculated;
        value           uniform 0;
    }
    frontAndBack
    {
        type            empty;
        value           nonuniform List<scalar> 0();
    }
}


// ************************************************************************* //
