/*--------------------------------*- C++ -*----------------------------------*\
| =========                 |                                                 |
| \\      /  F ield         | OpenFOAM: The Open Source CFD Toolbox           |
|  \\    /   O peration     | Version:  2212                                  |
|   \\  /    A nd           | Website:  www.openfoam.com                      |
|    \\/     M anipulation  |                                                 |
\*---------------------------------------------------------------------------*/
FoamFile
{
    version     2.0;
    format      ascii;
    arch        "LSB;label=32;scalar=64";
    class       volScalarField;
    location    "1.335";
    object      p;
}
// * * * * * * * * * * * * * * * * * * * * * * * * * * * * * * * * * * * * * //

dimensions      [0 2 -2 0 0 0 0];

internalField   nonuniform List<scalar> 
400
(
1.98737e-08
-0.000107506
-0.000267812
-0.000484218
-0.000745993
-0.00101981
-0.00124548
-0.00133156
-0.00116262
-0.000629465
0.000325219
0.00167307
0.00328038
0.00470341
0.00550843
0.00547253
0.00462377
0.00365581
0.00299654
0.0028721
0.000112428
2.55412e-06
-0.00012818
-0.000305596
-0.000525765
-0.0007671
-0.000999764
-0.00116928
-0.00117186
-0.000862426
-0.000110478
0.00111854
0.00262665
0.0040423
0.00490692
0.00494422
0.00425035
0.00327886
0.00272743
0.00267169
0.000267265
0.000117376
-1.74295e-05
-0.000216115
-0.000503834
-0.000891659
-0.00138131
-0.00192246
-0.00236861
-0.00248174
-0.00201901
-0.000907506
0.000645746
0.00228985
0.00354288
0.00400052
0.00362115
0.00282475
0.0021116
0.00198811
0.000335338
0.000146014
-2.18974e-05
-0.000310647
-0.000796022
-0.00154869
-0.0026114
-0.00391627
-0.00522255
-0.0061396
-0.0062826
-0.00551937
-0.00401582
-0.00202611
9.7415e-06
0.00156259
0.00224042
0.00206114
0.00139737
0.000883638
0.000171855
-6.12493e-05
-0.000304378
-0.000774439
-0.00162581
-0.00302061
-0.00503633
-0.00752158
-0.0100503
-0.0120519
-0.0130466
-0.0128449
-0.0115212
-0.00923519
-0.00632213
-0.00329919
-0.000814815
0.000546571
0.000617701
-0.0007343
-0.000360171
-0.000646036
-0.00101814
-0.00177491
-0.00317218
-0.00546792
-0.00871978
-0.0126011
-0.0164331
-0.0194969
-0.0213192
-0.0216954
-0.0205969
-0.0181929
-0.0147026
-0.0104269
-0.00594764
-0.00235099
-0.000948555
-0.00277736
-0.00133824
-0.00168713
-0.0022392
-0.00336624
-0.00542183
-0.00872227
-0.0132274
-0.0183635
-0.0231952
-0.0269291
-0.0291656
-0.0297846
-0.0288279
-0.0265082
-0.0229742
-0.018253
-0.0125209
-0.00683582
-0.00363524
-0.004408
-0.00274549
-0.00315943
-0.00391629
-0.00543313
-0.00812501
-0.0123088
-0.0178143
-0.0238336
-0.0292482
-0.0332675
-0.0355904
-0.0362055
-0.0352551
-0.0329972
-0.029631
-0.0250956
-0.0191756
-0.012331
-0.00694482
-0.00481898
-0.00446013
-0.00492337
-0.00586764
-0.00771444
-0.0108907
-0.0156802
-0.0218181
-0.0283471
-0.0340564
-0.0381912
-0.0405186
-0.0410675
-0.0400257
-0.0376979
-0.0344131
-0.0302293
-0.0247788
-0.01783
-0.0107908
-0.0059837
-0.00629295
-0.00676266
-0.0078373
-0.00989095
-0.0133229
-0.0183872
-0.0247957
-0.0315472
-0.0374042
-0.04163
-0.0439962
-0.0445102
-0.0433413
-0.0408334
-0.0374593
-0.0335039
-0.0287227
-0.0224323
-0.0151694
-0.00880775
-0.00804512
-0.00846325
-0.00958104
-0.0116823
-0.0151202
-0.0201405
-0.0264958
-0.033229
-0.0391286
-0.0434395
-0.0458783
-0.0463999
-0.045111
-0.0423884
-0.0388289
-0.0349648
-0.0308119
-0.0254864
-0.0190229
-0.0122965
-0.00954679
-0.00987046
-0.0109202
-0.0128939
-0.0161022
-0.0208003
-0.0267977
-0.0332613
-0.0390687
-0.0434179
-0.0459228
-0.046486
-0.0451269
-0.0422354
-0.0385226
-0.0346996
-0.0311007
-0.0266973
-0.0212671
-0.0147074
-0.0107279
-0.0109094
-0.011763
-0.0134417
-0.0162141
-0.0203405
-0.0257075
-0.0316612
-0.0372044
-0.041493
-0.0440258
-0.0446096
-0.0432997
-0.0404252
-0.0367067
-0.032919
-0.0298038
-0.026056
-0.0215057
-0.0150888
-0.0115787
-0.0115899
-0.0121225
-0.013336
-0.0154961
-0.0188614
-0.0234118
-0.0286701
-0.0337814
-0.0378971
-0.040429
-0.0411068
-0.0399504
-0.0372485
-0.0337001
-0.0301049
-0.0271994
-0.0238724
-0.0201628
-0.0133974
-0.0121373
-0.0119734
-0.0120769
-0.012694
-0.0141449
-0.0166863
-0.0203601
-0.0248346
-0.0294052
-0.0332658
-0.0357799
-0.0366018
-0.0357063
-0.0333133
-0.0300649
-0.0267049
-0.0239357
-0.0207763
-0.0182769
-0.00987094
-0.0124969
-0.0121594
-0.0116742
-0.0115949
-0.0123329
-0.0141319
-0.0170384
-0.0208044
-0.0248574
-0.0284657
-0.0309836
-0.0319967
-0.0314244
-0.0294213
-0.0265187
-0.0233575
-0.0206003
-0.0174263
-0.016116
-0.00334754
-0.0127121
-0.012259
-0.0110572
-0.0102493
-0.0103396
-0.0115622
-0.0139212
-0.017183
-0.0208647
-0.0243102
-0.0268961
-0.0281535
-0.0279235
-0.0263096
-0.0236981
-0.0205568
-0.0174702
-0.0137815
-0.0107168
0.0115415
-0.0138059
-0.0124118
-0.0100381
-0.00849668
-0.00814704
-0.00906597
-0.0111723
-0.014207
-0.0177464
-0.0211845
-0.0239437
-0.02551
-0.0256759
-0.0243815
-0.0218997
-0.018374
-0.0140531
-0.00703042
0.00617952
0.047405
-0.0121758
-0.0131434
-0.00956615
-0.00713724
-0.00638049
-0.00714675
-0.00920094
-0.0122135
-0.0158025
-0.0193621
-0.0223731
-0.0242622
-0.0248106
-0.0237457
-0.021103
-0.0161896
-0.00771422
0.00986003
0.0464754
0.117088
-0.029734
-0.0130302
-0.0059282
-0.00372237
-0.00354979
-0.0046538
-0.00692868
-0.0101239
-0.0138862
-0.0176145
-0.0208196
-0.0229507
-0.023772
-0.0228446
-0.0196007
-0.0119308
0.00451965
0.0404798
0.109418
0.213701
)
;

boundaryField
{
    movingWall
    {
        type            zeroGradient;
    }
    fixedWalls
    {
        type            zeroGradient;
    }
    frontAndBack
    {
        type            empty;
    }
}


// ************************************************************************* //
