/*--------------------------------*- C++ -*----------------------------------*\
| =========                 |                                                 |
| \\      /  F ield         | OpenFOAM: The Open Source CFD Toolbox           |
|  \\    /   O peration     | Version:  2212                                  |
|   \\  /    A nd           | Website:  www.openfoam.com                      |
|    \\/     M anipulation  |                                                 |
\*---------------------------------------------------------------------------*/
FoamFile
{
    version     2.0;
    format      ascii;
    arch        "LSB;label=32;scalar=64";
    class       surfaceScalarField;
    location    "2.515";
    object      phi;
}
// * * * * * * * * * * * * * * * * * * * * * * * * * * * * * * * * * * * * * //

dimensions      [0 3 -1 0 0 0 0];

oriented        oriented;

internalField   nonuniform List<scalar> 
760
(
1.31665e-07
-1.31663e-07
2.42243e-07
-1.10578e-07
2.4762e-07
-5.37736e-09
1.25686e-07
1.21934e-07
-1.58784e-07
2.8447e-07
-6.62006e-07
5.03222e-07
-1.4138e-06
7.51797e-07
-2.34325e-06
9.29443e-07
-3.27199e-06
9.28749e-07
-3.98341e-06
7.11416e-07
-4.31166e-06
3.28254e-07
-4.16159e-06
-1.50072e-07
-3.46781e-06
-6.93785e-07
-2.33453e-06
-1.13328e-06
-9.77674e-07
-1.35686e-06
2.48051e-07
-1.22572e-06
9.75587e-07
-7.27537e-07
9.53253e-07
2.23345e-08
4.30386e-07
5.22867e-07
4.30386e-07
8.5912e-08
-2.17575e-07
7.22566e-09
-3.1891e-08
-3.48134e-07
3.49983e-07
-1.06903e-06
8.4283e-07
-2.2028e-06
1.41824e-06
-3.68998e-06
1.9904e-06
-5.317e-06
2.37882e-06
-6.79591e-06
2.40836e-06
-7.90096e-06
2.0338e-06
-8.51246e-06
1.32292e-06
-8.57888e-06
3.94671e-07
-8.07116e-06
-6.57796e-07
-7.01974e-06
-1.7452e-06
-5.45479e-06
-2.69822e-06
-3.51333e-06
-3.29832e-06
-1.4866e-06
-3.25246e-06
1.15498e-07
-2.32963e-06
7.89519e-07
-6.51686e-07
4.93547e-07
8.18839e-07
9.23933e-07
-1.49853e-07
-6.77218e-08
-6.39014e-07
4.5727e-07
-1.55695e-06
1.26792e-06
-2.94952e-06
2.2354e-06
-4.7259e-06
3.19462e-06
-6.63065e-06
3.89515e-06
-8.36692e-06
4.11509e-06
-9.74465e-06
3.78608e-06
-1.06967e-05
2.98586e-06
-1.12084e-05
1.83464e-06
-1.12359e-05
4.22136e-07
-1.08133e-05
-1.0804e-06
-9.93109e-06
-2.6274e-06
-8.53762e-06
-4.0917e-06
-6.61249e-06
-5.22344e-06
-4.24547e-06
-5.61948e-06
-1.81998e-06
-4.75512e-06
-9.71047e-08
-2.37456e-06
2.83475e-07
4.3826e-07
1.20741e-06
-4.74029e-07
4.06308e-07
-1.4612e-06
1.44444e-06
-2.89876e-06
2.70548e-06
-4.72205e-06
4.05869e-06
-6.71358e-06
5.18614e-06
-8.58844e-06
5.77001e-06
-1.01371e-05
5.66373e-06
-1.12948e-05
4.94376e-06
-1.20793e-05
3.77035e-06
-1.25214e-05
2.2768e-06
-1.26099e-05
5.10648e-07
-1.23931e-05
-1.29723e-06
-1.18427e-05
-3.1778e-06
-1.08592e-05
-5.07519e-06
-9.31527e-06
-6.76737e-06
-7.08999e-06
-7.84476e-06
-4.2285e-06
-7.61661e-06
-1.33022e-06
-5.27284e-06
1.14122e-07
-1.00608e-06
1.32153e-06
-7.9154e-07
1.19785e-06
-2.173e-06
2.8259e-06
-3.90904e-06
4.44152e-06
-5.8422e-06
5.99185e-06
-7.71911e-06
7.06305e-06
-9.31469e-06
7.36559e-06
-1.05312e-05
6.8802e-06
-1.13782e-05
5.79078e-06
-1.19105e-05
4.30266e-06
-1.21979e-05
2.56424e-06
-1.23243e-05
6.36989e-07
-1.22925e-05
-1.32897e-06
-1.20912e-05
-3.3791e-06
-1.1641e-05
-5.5254e-06
-1.07586e-05
-7.64978e-06
-9.16234e-06
-9.44104e-06
-6.57003e-06
-1.02089e-05
-3.09458e-06
-8.7483e-06
-2.55396e-07
-3.84527e-06
1.06613e-06
-9.86816e-07
2.18466e-06
-2.55284e-06
4.39192e-06
-4.32692e-06
6.21561e-06
-6.10687e-06
7.7718e-06
-7.67603e-06
8.63221e-06
-8.88873e-06
8.57829e-06
-9.7184e-06
7.70987e-06
-1.0217e-05
6.28939e-06
-1.04692e-05
4.55482e-06
-1.05741e-05
2.66915e-06
-1.06522e-05
7.15083e-07
-1.071e-05
-1.27114e-06
-1.0757e-05
-3.33212e-06
-1.07647e-05
-5.51767e-06
-1.05775e-05
-7.83698e-06
-9.86752e-06
-1.01511e-05
-8.15157e-06
-1.19249e-05
-5.04112e-06
-1.18587e-05
-1.11179e-06
-7.77461e-06
-4.56512e-08
-1.00497e-06
3.18964e-06
-2.53158e-06
5.91853e-06
-4.13757e-06
7.82159e-06
-5.62295e-06
9.25719e-06
-6.82749e-06
9.83675e-06
-7.67024e-06
9.42105e-06
-8.1686e-06
8.20823e-06
-8.39862e-06
6.51942e-06
-8.46047e-06
4.61667e-06
-8.45431e-06
2.66299e-06
-8.47e-06
7.30776e-07
-8.53775e-06
-1.2034e-06
-8.67919e-06
-3.19068e-06
-8.90752e-06
-5.28934e-06
-9.1613e-06
-7.5832e-06
-9.19901e-06
-1.01133e-05
-8.49777e-06
-1.26261e-05
-6.32369e-06
-1.40328e-05
-2.32362e-06
-1.17747e-05
-2.36927e-06
-8.46612e-07
4.03625e-06
-2.15954e-06
7.23146e-06
-3.47992e-06
9.14197e-06
-4.62767e-06
1.04049e-05
-5.49579e-06
1.07049e-05
-6.05099e-06
9.97625e-06
-6.33454e-06
8.49177e-06
-6.42919e-06
6.61407e-06
-6.43019e-06
4.61767e-06
-6.41618e-06
2.64899e-06
-6.43099e-06
7.45587e-07
-6.49657e-06
-1.13782e-06
-6.63999e-06
-3.04726e-06
-6.89792e-06
-5.0314e-06
-7.28788e-06
-7.19324e-06
-7.70798e-06
-9.69325e-06
-7.73065e-06
-1.26034e-05
-6.5383e-06
-1.52252e-05
-3.44559e-06
-1.48674e-05
-5.81486e-06
-5.64712e-07
4.60096e-06
-1.55553e-06
8.22228e-06
-2.54244e-06
1.01289e-05
-3.36051e-06
1.1223e-05
-3.94788e-06
1.12922e-05
-4.30283e-06
1.03312e-05
-4.4737e-06
8.66264e-06
-4.53345e-06
6.67382e-06
-4.55507e-06
4.63928e-06
-4.58634e-06
2.68026e-06
-4.64094e-06
8.00187e-07
-4.72695e-06
-1.05182e-06
-4.85966e-06
-2.91454e-06
-5.07608e-06
-4.81498e-06
-5.44033e-06
-6.82899e-06
-5.96304e-06
-9.17053e-06
-6.40166e-06
-1.21648e-05
-5.99572e-06
-1.56311e-05
-3.82041e-06
-1.70427e-05
-9.63527e-06
-2.0913e-07
4.81009e-06
-8.24992e-07
8.83814e-06
-1.46661e-06
1.07705e-05
-1.98149e-06
1.17379e-05
-2.33692e-06
1.16477e-05
-2.55066e-06
1.05449e-05
-2.66613e-06
8.77812e-06
-2.73407e-06
6.74175e-06
-2.79867e-06
4.70387e-06
-2.88328e-06
2.76488e-06
-2.99018e-06
9.07091e-07
-3.11826e-06
-9.23738e-07
-3.27059e-06
-2.76221e-06
-3.46744e-06
-4.61813e-06
-3.77406e-06
-6.52237e-06
-4.28084e-06
-8.66375e-06
-4.91614e-06
-1.15295e-05
-5.04515e-06
-1.55021e-05
-3.5009e-06
-1.85869e-05
-1.31362e-05
1.4881e-07
4.66128e-06
-6.42239e-08
9.05118e-06
-3.79606e-07
1.10859e-05
-6.20916e-07
1.19792e-05
-7.70502e-07
1.17972e-05
-8.56895e-07
1.06313e-05
-9.18791e-07
8.84002e-06
-9.8838e-07
6.81134e-06
-1.08102e-06
4.79651e-06
-1.20238e-06
2.88624e-06
-1.35184e-06
1.05655e-06
-1.52971e-06
-7.45874e-07
-1.73531e-06
-2.55661e-06
-1.972e-06
-4.38145e-06
-2.27999e-06
-6.21437e-06
-2.76983e-06
-8.17392e-06
-3.49779e-06
-1.08016e-05
-3.98997e-06
-1.50099e-05
-2.99995e-06
-1.9577e-05
-1.61361e-05
4.49627e-07
4.21165e-06
6.33897e-07
8.86691e-06
6.78693e-07
1.10411e-05
7.21639e-07
1.19363e-05
7.7724e-07
1.17416e-05
8.15769e-07
1.05928e-05
8.13408e-07
8.84238e-06
7.61677e-07
6.86308e-06
6.63664e-07
4.89452e-06
5.26141e-07
3.02376e-06
3.48192e-07
1.2345e-06
1.25533e-07
-5.23215e-07
-1.4473e-07
-2.28635e-06
-4.7081e-07
-4.05537e-06
-8.63985e-07
-5.8212e-06
-1.38725e-06
-7.65065e-06
-2.19412e-06
-9.99469e-06
-2.9631e-06
-1.42409e-05
-2.46602e-06
-2.0074e-05
-1.86021e-05
6.71509e-07
3.54014e-06
1.2244e-06
8.31401e-06
1.60141e-06
1.06641e-05
1.93274e-06
1.16049e-05
2.22081e-06
1.14536e-05
2.42407e-06
1.03895e-05
2.52511e-06
8.74134e-06
2.53277e-06
6.85542e-06
2.4648e-06
4.96249e-06
2.33368e-06
3.15489e-06
2.13759e-06
1.43059e-06
1.86384e-06
-2.49468e-07
1.51281e-06
-1.93531e-06
1.0797e-06
-3.62226e-06
5.5684e-07
-5.29834e-06
-1.19154e-07
-6.97465e-06
-1.00367e-06
-9.11017e-06
-1.97638e-06
-1.32682e-05
-1.95237e-06
-2.00981e-05
-2.05545e-05
7.65412e-07
2.77473e-06
1.62585e-06
7.45358e-06
2.32804e-06
9.96188e-06
2.95868e-06
1.09743e-05
3.51599e-06
1.08963e-05
3.94499e-06
9.96055e-06
4.21786e-06
8.46847e-06
4.34345e-06
6.72982e-06
4.34638e-06
4.95956e-06
4.24616e-06
3.25511e-06
4.04488e-06
1.63188e-06
3.72276e-06
7.2643e-08
3.28507e-06
-1.49762e-06
2.71794e-06
-3.05513e-06
2.02099e-06
-4.60139e-06
1.20552e-06
-6.15918e-06
1.66315e-07
-8.07097e-06
-1.05184e-06
-1.20501e-05
-1.47182e-06
-1.96781e-05
-2.20263e-05
7.00893e-07
2.07384e-06
1.73589e-06
6.41858e-06
2.71137e-06
8.9864e-06
3.65378e-06
1.00319e-05
4.52634e-06
1.00237e-05
5.25252e-06
9.23437e-06
5.78029e-06
7.94069e-06
6.10426e-06
6.40585e-06
6.24411e-06
4.81971e-06
6.22103e-06
3.27819e-06
6.03911e-06
1.81379e-06
5.69225e-06
4.19507e-07
5.16003e-06
-9.65403e-07
4.44701e-06
-2.34211e-06
3.5492e-06
-3.70358e-06
2.498e-06
-5.10798e-06
1.23873e-06
-6.81169e-06
-2.4566e-07
-1.05657e-05
-9.81e-07
-1.89427e-05
-2.30073e-05
4.93828e-07
1.58001e-06
1.53966e-06
5.37275e-06
2.77441e-06
7.75165e-06
4.0547e-06
8.75158e-06
5.28544e-06
8.79296e-06
6.35994e-06
8.15987e-06
7.19979e-06
7.10084e-06
7.78096e-06
5.82469e-06
8.11096e-06
4.48971e-06
8.20702e-06
3.18213e-06
8.0776e-06
1.94321e-06
7.72424e-06
7.72864e-07
7.1062e-06
-3.47357e-07
6.24526e-06
-1.48117e-06
5.13338e-06
-2.5917e-06
3.82035e-06
-3.79495e-06
2.35704e-06
-5.34838e-06
7.87061e-07
-8.9957e-06
-2.2583e-07
-1.79298e-05
-2.32332e-05
1.01573e-07
1.47844e-06
8.51939e-07
4.62238e-06
2.19874e-06
6.40484e-06
3.81005e-06
7.14028e-06
5.45626e-06
7.14675e-06
6.95029e-06
6.66583e-06
8.17769e-06
5.87345e-06
9.09701e-06
4.90537e-06
9.69555e-06
3.89117e-06
9.98378e-06
2.8939e-06
9.96583e-06
1.96117e-06
9.65082e-06
1.08787e-06
9.01244e-06
2.91019e-07
8.05158e-06
-5.20299e-07
6.78491e-06
-1.32504e-06
5.26443e-06
-2.27447e-06
3.64564e-06
-3.7296e-06
2.07529e-06
-7.42535e-06
5.87806e-07
-1.64424e-05
-2.26454e-05
-4.86857e-07
1.96529e-06
1.11669e-07
4.02386e-06
1.49099e-06
5.02553e-06
3.38395e-06
5.24732e-06
5.40608e-06
5.12462e-06
7.27908e-06
4.79283e-06
8.85651e-06
4.29602e-06
1.00866e-05
3.67523e-06
1.09417e-05
3.03613e-06
1.14357e-05
2.3999e-06
1.15715e-05
1.82534e-06
1.13721e-05
1.28727e-06
1.08513e-05
8.11841e-07
1.00059e-05
3.25138e-07
8.84927e-06
-1.68452e-07
7.43875e-06
-8.63942e-07
5.96666e-06
-2.25751e-06
4.28894e-06
-5.74762e-06
1.98494e-06
-1.41384e-05
-2.06604e-05
-4.14914e-06
6.11444e-06
-3.65209e-06
3.5268e-06
-1.38489e-06
2.75833e-06
1.25469e-06
2.60775e-06
3.84694e-06
2.53236e-06
6.26439e-06
2.37539e-06
8.40011e-06
2.1603e-06
1.01905e-05
1.88482e-06
1.16107e-05
1.61597e-06
1.26809e-05
1.32972e-06
1.34147e-05
1.0915e-06
1.38549e-05
8.47071e-07
1.39961e-05
6.70672e-07
1.38589e-05
4.62258e-07
1.34179e-05
2.72628e-07
1.26881e-05
-1.34185e-07
1.16872e-05
-1.25657e-06
1.00067e-05
-4.06717e-06
5.59402e-06
-9.72567e-06
-1.50664e-05
6.11444e-06
9.64124e-06
1.23996e-05
1.50073e-05
1.75397e-05
1.99151e-05
2.20754e-05
2.39602e-05
2.55761e-05
2.69059e-05
2.79974e-05
2.88444e-05
2.95151e-05
2.99774e-05
3.025e-05
3.01158e-05
2.88592e-05
2.47921e-05
1.50664e-05
)
;

boundaryField
{
    movingWall
    {
        type            calculated;
        value           uniform 0;
    }
    fixedWalls
    {
        type            calculated;
        value           uniform 0;
    }
    frontAndBack
    {
        type            empty;
        value           nonuniform List<scalar> 0();
    }
}


// ************************************************************************* //
