/*--------------------------------*- C++ -*----------------------------------*\
| =========                 |                                                 |
| \\      /  F ield         | OpenFOAM: The Open Source CFD Toolbox           |
|  \\    /   O peration     | Version:  2212                                  |
|   \\  /    A nd           | Website:  www.openfoam.com                      |
|    \\/     M anipulation  |                                                 |
\*---------------------------------------------------------------------------*/
FoamFile
{
    version     2.0;
    format      ascii;
    arch        "LSB;label=32;scalar=64";
    class       volScalarField;
    location    "0.41";
    object      p;
}
// * * * * * * * * * * * * * * * * * * * * * * * * * * * * * * * * * * * * * //

dimensions      [0 2 -2 0 0 0 0];

internalField   nonuniform List<scalar> 
400
(
2.45785e-09
-1.41683e-05
2.86477e-05
0.000124522
0.00027322
0.000476787
0.000738103
0.00106031
0.00144591
0.00189556
0.00240649
0.00297065
0.0035726
0.00418752
0.00478032
0.00530777
0.00572514
0.00599833
0.0061148
0.00607817
1.56771e-05
1.16235e-06
4.83014e-05
0.000145978
0.000293166
0.000493027
0.000749067
0.00106476
0.00144292
0.00188468
0.00238797
0.0029456
0.00354325
0.00415741
0.00475249
0.00528387
0.0057047
0.00597995
0.00609629
0.00605122
-3.7158e-05
-5.72745e-05
-1.15559e-05
8.36343e-05
0.000226306
0.000420195
0.000669533
0.000978733
0.00135192
0.00179195
0.00229896
0.00286817
0.00348743
0.00413343
0.00476829
0.0053405
0.00579276
0.00608073
0.00618835
0.00611419
-0.000160836
-0.000186339
-0.000144555
-5.48459e-05
8.03681e-05
0.000265437
0.000505571
0.000806647
0.00117488
0.00161598
0.00213361
0.00272686
0.00338676
0.0040921
0.00480081
0.00544952
0.00596148
0.00627359
0.00636528
0.00624364
-0.000357787
-0.000387713
-0.000351438
-0.000269863
-0.000145366
2.71706e-05
0.000254165
0.000543331
0.00090359
0.00134449
0.00187484
0.00249965
0.00321516
0.00400524
0.00482498
0.00559405
0.00620343
0.00655475
0.00661646
0.00641121
-0.000627787
-0.000662222
-0.000633347
-0.00056304
-0.000453518
-0.000298907
-9.1558e-05
0.000178204
0.000522336
0.000954976
0.00149164
0.002146
0.00292461
0.00381998
0.00479232
0.00574126
0.00650637
0.00692286
0.00692969
0.00656818
-0.000968283
-0.00100798
-0.000988841
-0.000933704
-0.0008448
-0.000715776
-0.000538069
-0.00030038
1.20446e-05
0.000417935
0.000940159
0.00160474
0.00243473
0.00343639
0.00459729
0.00580421
0.00682043
0.00735516
0.00727061
0.00662244
-0.00137522
-0.00142122
-0.00141445
-0.00137903
-0.00131765
-0.0012241
-0.00108974
-0.000902691
-0.00064673
-0.000299967
0.000166758
0.000791262
0.0016141
0.00266481
0.00401628
0.00555872
0.00698255
0.00776226
0.00754453
0.00643399
-0.00184314
-0.00189653
-0.00190466
-0.00189359
-0.0018672
-0.00182044
-0.001746
-0.00163348
-0.00146802
-0.00122841
-0.000884664
-0.000395541
0.000298575
0.00128638
0.00260302
0.00442701
0.00644452
0.00775788
0.00748929
0.0059494
-0.00236515
-0.00242682
-0.00245159
-0.00246849
-0.00248371
-0.00249476
-0.00249767
-0.00248655
-0.00245271
-0.0023834
-0.00226028
-0.00206063
-0.00176083
-0.00130235
-0.000474216
0.00108267
0.003597
0.00594322
0.00645229
0.00553715
-0.00293331
-0.00300361
-0.00304487
-0.00309075
-0.00315126
-0.00322815
-0.00332307
-0.00343828
-0.00357749
-0.00374756
-0.00396152
-0.00425559
-0.00474155
-0.00558919
-0.00659875
-0.00658887
-0.004455
-0.000542808
0.00293924
0.00528574
-0.00353972
-0.00361794
-0.00367207
-0.00374312
-0.00384703
-0.00399133
-0.00418528
-0.00444246
-0.00478501
-0.00525135
-0.0059095
-0.00690036
-0.00857502
-0.0115376
-0.0157529
-0.0189723
-0.0185294
-0.0132669
-0.00544369
0.0024449
-0.00417874
-0.00426243
-0.00432017
-0.00440506
-0.0045419
-0.0047452
-0.00503236
-0.00542941
-0.00597945
-0.00675873
-0.00790576
-0.00969143
-0.0127115
-0.0179778
-0.0257089
-0.0334123
-0.0348075
-0.0289122
-0.0181351
-0.00548446
-0.00485064
-0.0049329
-0.00497529
-0.0050523
-0.00520141
-0.0054435
-0.0058022
-0.00631334
-0.00703673
-0.00807874
-0.0096339
-0.0120653
-0.0160799
-0.0227753
-0.0322886
-0.0422788
-0.0455244
-0.040128
-0.0291217
-0.0145199
-0.00557233
-0.00564128
-0.00563634
-0.00566726
-0.00579385
-0.00604152
-0.00643452
-0.00701132
-0.00783761
-0.00902983
-0.0107973
-0.0135068
-0.0178316
-0.0246305
-0.0339354
-0.0440045
-0.0477028
-0.0425608
-0.0333256
-0.0185691
-0.00637701
-0.00639337
-0.00626673
-0.00620205
-0.00627254
-0.00649302
-0.00687937
-0.00746475
-0.00830988
-0.00952265
-0.0112925
-0.0138629
-0.0179762
-0.0240989
-0.0320318
-0.0395234
-0.0423191
-0.0380597
-0.0318055
-0.0151479
-0.00730766
-0.007316
-0.00698625
-0.00672095
-0.00666137
-0.0068018
-0.00713224
-0.00766794
-0.0084558
-0.00958101
-0.011164
-0.0135131
-0.0170013
-0.0218377
-0.0276553
-0.0325128
-0.0339657
-0.0302868
-0.0240001
-0.00046976
-0.00930238
-0.00843401
-0.00734491
-0.0068578
-0.00674519
-0.00685021
-0.00713742
-0.00760989
-0.00831135
-0.00929958
-0.0107182
-0.0127583
-0.0156658
-0.0194207
-0.0236807
-0.026702
-0.0263574
-0.0199273
-0.00544846
0.0356633
-0.00850449
-0.0104508
-0.00877844
-0.00770653
-0.00723035
-0.00712808
-0.00726399
-0.0075897
-0.00815883
-0.00899986
-0.0102818
-0.0120994
-0.0147054
-0.0178457
-0.0211249
-0.0224578
-0.0187645
-0.00251537
0.0346609
0.105629
-0.0261925
-0.0111764
-0.00612384
-0.00517566
-0.00513103
-0.00522747
-0.00549961
-0.00595592
-0.00669433
-0.00769332
-0.00915363
-0.011128
-0.013826
-0.0168641
-0.0192431
-0.0175819
-0.00565496
0.0281492
0.0973261
0.203308
)
;

boundaryField
{
    movingWall
    {
        type            zeroGradient;
    }
    fixedWalls
    {
        type            zeroGradient;
    }
    frontAndBack
    {
        type            empty;
    }
}


// ************************************************************************* //
