/*--------------------------------*- C++ -*----------------------------------*\
| =========                 |                                                 |
| \\      /  F ield         | OpenFOAM: The Open Source CFD Toolbox           |
|  \\    /   O peration     | Version:  2212                                  |
|   \\  /    A nd           | Website:  www.openfoam.com                      |
|    \\/     M anipulation  |                                                 |
\*---------------------------------------------------------------------------*/
FoamFile
{
    version     2.0;
    format      ascii;
    arch        "LSB;label=32;scalar=64";
    class       volVectorField;
    location    "0.43";
    object      U;
}
// * * * * * * * * * * * * * * * * * * * * * * * * * * * * * * * * * * * * * //

dimensions      [0 1 -1 0 0 0 0];

internalField   nonuniform List<vector> 
400
(
(-0.000189886 0.000176793 0)
(-0.00108373 0.000481442 0)
(-0.00260475 0.000604871 0)
(-0.00425556 0.000639924 0)
(-0.00592931 0.000652368 0)
(-0.00760478 0.00066081 0)
(-0.00926523 0.000664136 0)
(-0.0108825 0.000654851 0)
(-0.0124091 0.000622695 0)
(-0.0137731 0.000555468 0)
(-0.0148753 0.000439902 0)
(-0.0155891 0.000263291 0)
(-0.0157665 1.64896e-05 0)
(-0.0152547 -0.000299193 0)
(-0.0139329 -0.000659822 0)
(-0.0117648 -0.00101636 0)
(-0.00885847 -0.00129018 0)
(-0.00550822 -0.00137338 0)
(-0.00224822 -0.00112298 0)
(-0.000362165 -0.000415681 0)
(-0.000542249 0.00111471 0)
(-0.00246548 0.00234229 0)
(-0.00542274 0.00282795 0)
(-0.00859681 0.00296809 0)
(-0.011787 0.00299108 0)
(-0.0149355 0.00296879 0)
(-0.0179888 0.00290234 0)
(-0.0208802 0.00276692 0)
(-0.0235174 0.00252654 0)
(-0.0257743 0.0021386 0)
(-0.0274881 0.0015581 0)
(-0.0284623 0.000745463 0)
(-0.028476 -0.000319935 0)
(-0.0273058 -0.00161624 0)
(-0.0247854 -0.00304857 0)
(-0.0208859 -0.00442755 0)
(-0.0157999 -0.00545609 0)
(-0.010004 -0.00573669 0)
(-0.00436745 -0.00477898 0)
(-0.000863956 -0.00209009 0)
(-0.0007161 0.00280408 0)
(-0.00315256 0.00537941 0)
(-0.00680706 0.00636608 0)
(-0.0106874 0.00664256 0)
(-0.0145614 0.00664796 0)
(-0.0183633 0.00652838 0)
(-0.0220282 0.00629341 0)
(-0.0254788 0.00589966 0)
(-0.0286121 0.00528057 0)
(-0.0312896 0.00435643 0)
(-0.0333309 0.00304325 0)
(-0.0345129 0.00126872 0)
(-0.034574 -0.00100179 0)
(-0.0332335 -0.00372684 0)
(-0.0302573 -0.00671786 0)
(-0.0255611 -0.00959038 0)
(-0.0193405 -0.0117257 0)
(-0.0121847 -0.012292 0)
(-0.00522718 -0.0103149 0)
(-0.000994925 -0.00477602 0)
(-0.000778186 0.00472405 0)
(-0.00344111 0.00880889 0)
(-0.00743035 0.010329 0)
(-0.0116477 0.0107368 0)
(-0.0158527 0.0107128 0)
(-0.019989 0.0104841 0)
(-0.0239999 0.0100706 0)
(-0.0278177 0.00941095 0)
(-0.0313495 0.00840723 0)
(-0.034463 0.00693835 0)
(-0.036974 0.00487168 0)
(-0.038637 0.00208561 0)
(-0.0391401 -0.00149436 0)
(-0.0380965 -0.00584609 0)
(-0.0351151 -0.0107025 0)
(-0.0299517 -0.0154571 0)
(-0.0227162 -0.0190579 0)
(-0.0141199 -0.0200377 0)
(-0.00572696 -0.0167428 0)
(-0.00093724 -0.00766159 0)
(-0.000793849 0.0067306 0)
(-0.00355426 0.0124123 0)
(-0.00771601 0.0144904 0)
(-0.01212 0.0150375 0)
(-0.0165275 0.0149988 0)
(-0.0208999 0.0146902 0)
(-0.0252014 0.0141442 0)
(-0.0293885 0.0132835 0)
(-0.033394 0.0119776 0)
(-0.0371081 0.0100568 0)
(-0.0403544 0.00732209 0)
(-0.0428673 0.00356871 0)
(-0.0442766 -0.0013716 0)
(-0.0440394 -0.00755035 0)
(-0.0414932 -0.0146995 0)
(-0.0360711 -0.0219782 0)
(-0.0276204 -0.0277224 0)
(-0.0169217 -0.0294256 0)
(-0.00625871 -0.0243144 0)
(-0.000720555 -0.0105911 0)
(-0.000792065 0.00877067 0)
(-0.00359925 0.016118 0)
(-0.00787054 0.0187868 0)
(-0.012407 0.0194962 0)
(-0.0169762 0.0194781 0)
(-0.0215629 0.0191467 0)
(-0.0261618 0.0185539 0)
(-0.0307672 0.0176099 0)
(-0.0353554 0.0161527 0)
(-0.0398612 0.0139576 0)
(-0.044142 0.0107377 0)
(-0.0479397 0.00615537 0)
(-0.0508334 -0.000123924 0)
(-0.0521152 -0.00829448 0)
(-0.0507436 -0.0183035 0)
(-0.0455598 -0.0291369 0)
(-0.0357559 -0.0383165 0)
(-0.0218502 -0.0415464 0)
(-0.00716156 -0.033833 0)
(-0.000259258 -0.0134997 0)
(-0.000782065 0.0108195 0)
(-0.00361492 0.019892 0)
(-0.00797042 0.0231868 0)
(-0.012615 0.024088 0)
(-0.0173235 0.0241354 0)
(-0.0221086 0.0238556 0)
(-0.0270044 0.0233292 0)
(-0.0320565 0.0224639 0)
(-0.0373074 0.0210735 0)
(-0.0427712 0.0188807 0)
(-0.048394 0.015499 0)
(-0.0539836 0.0104244 0)
(-0.0591053 0.00307731 0)
(-0.0630271 -0.00710245 0)
(-0.0643028 -0.0205261 0)
(-0.060724 -0.0363781 0)
(-0.0500136 -0.0513666 0)
(-0.0314948 -0.0581721 0)
(-0.00962597 -0.0469353 0)
(0.000470229 -0.0165297 0)
(-0.000765941 0.0128635 0)
(-0.00361137 0.0237165 0)
(-0.00803392 0.0276698 0)
(-0.0127611 0.0287883 0)
(-0.0175736 0.0289444 0)
(-0.0225146 0.028794 0)
(-0.0276639 0.0284618 0)
(-0.0331323 0.0278702 0)
(-0.0390529 0.0268285 0)
(-0.0455622 0.0250258 0)
(-0.0527644 0.0219917 0)
(-0.0606544 0.0170531 0)
(-0.0690286 0.00928958 0)
(-0.0773598 -0.00246653 0)
(-0.0838917 -0.0192804 0)
(-0.0847935 -0.0418808 0)
(-0.0747255 -0.0666452 0)
(-0.0504505 -0.081565 0)
(-0.0174424 -0.0670277 0)
(0.000948641 -0.0210477 0)
(-0.000745099 0.0148921 0)
(-0.00359286 0.0275781 0)
(-0.00806424 0.0322126 0)
(-0.0128368 0.0335591 0)
(-0.0176923 0.0338515 0)
(-0.0227039 0.033896 0)
(-0.0280001 0.033882 0)
(-0.0337659 0.0337725 0)
(-0.0402462 0.033409 0)
(-0.0477458 0.0324961 0)
(-0.0566227 0.0305429 0)
(-0.0672737 0.0267867 0)
(-0.0800584 0.0200523 0)
(-0.0948685 0.00840412 0)
(-0.110213 -0.0112622 0)
(-0.119605 -0.0423494 0)
(-0.112203 -0.0827514 0)
(-0.082924 -0.113492 0)
(-0.0383542 -0.0998426 0)
(-0.000891719 -0.0312787 0)
(-0.000724186 0.016899 0)
(-0.00357151 0.0314655 0)
(-0.00807484 0.0367849 0)
(-0.0128432 0.0383421 0)
(-0.0176518 0.0387665 0)
(-0.0225997 0.0390386 0)
(-0.0278604 0.0394361 0)
(-0.0336902 0.039997 0)
(-0.0404506 0.0406486 0)
(-0.0486404 0.0411974 0)
(-0.0589362 0.0412692 0)
(-0.0722729 0.0402286 0)
(-0.0899987 0.0369007 0)
(-0.113316 0.028256 0)
(-0.139797 0.00707372 0)
(-0.158669 -0.0359065 0)
(-0.154519 -0.0996292 0)
(-0.125447 -0.154502 0)
(-0.0770232 -0.15029 0)
(-0.00874967 -0.0539174 0)
(-0.000714495 0.0188908 0)
(-0.00357787 0.0353787 0)
(-0.00810738 0.0413543 0)
(-0.0128155 0.0430597 0)
(-0.0174617 0.0435609 0)
(-0.0221646 0.0440363 0)
(-0.0271299 0.044874 0)
(-0.0326647 0.0462214 0)
(-0.0392202 0.0481547 0)
(-0.0474618 0.050697 0)
(-0.0583509 0.0537822 0)
(-0.0732902 0.0571432 0)
(-0.0945443 0.0596046 0)
(-0.124525 0.0560269 0)
(-0.159518 0.0327443 0)
(-0.182879 -0.0269629 0)
(-0.180293 -0.118817 0)
(-0.159419 -0.201056 0)
(-0.117557 -0.217821 0)
(-0.0230654 -0.102108 0)
(-0.000738309 0.0209024 0)
(-0.00367232 0.039345 0)
(-0.00824875 0.0458975 0)
(-0.0128432 0.0476234 0)
(-0.0171946 0.0480751 0)
(-0.0214358 0.0486482 0)
(-0.0257851 0.0498517 0)
(-0.030558 0.0519639 0)
(-0.036222 0.0552582 0)
(-0.0434905 0.0600736 0)
(-0.0534 0.0668073 0)
(-0.0673831 0.0756035 0)
(-0.0878829 0.0846875 0)
(-0.117765 0.0854995 0)
(-0.151843 0.0583851 0)
(-0.170575 -0.0156637 0)
(-0.168497 -0.131237 0)
(-0.158781 -0.240266 0)
(-0.132027 -0.295653 0)
(-0.0339059 -0.196535 0)
(-0.000835334 0.0230201 0)
(-0.00395918 0.0434318 0)
(-0.00865012 0.0503963 0)
(-0.0130914 0.0519283 0)
(-0.0170079 0.0521233 0)
(-0.0205564 0.0525952 0)
(-0.0239482 0.0539607 0)
(-0.02745 0.0566178 0)
(-0.0314326 0.0610321 0)
(-0.0364463 0.0678547 0)
(-0.043236 0.0778975 0)
(-0.0526295 0.0914389 0)
(-0.066144 0.105494 0)
(-0.0862482 0.10845 0)
(-0.108816 0.0782983 0)
(-0.12105 -0.00228459 0)
(-0.121307 -0.125575 0)
(-0.121355 -0.253559 0)
(-0.117049 -0.35478 0)
(-0.0289885 -0.307917 0)
(-0.00107983 0.0254409 0)
(-0.00461994 0.0478544 0)
(-0.00954845 0.0549648 0)
(-0.0138023 0.0559436 0)
(-0.0171419 0.0555519 0)
(-0.0197818 0.055615 0)
(-0.0219171 0.0568015 0)
(-0.0237144 0.0595637 0)
(-0.0253443 0.0644722 0)
(-0.0270111 0.0723389 0)
(-0.0289098 0.0841223 0)
(-0.0310307 0.0999622 0)
(-0.0337931 0.116005 0)
(-0.0397568 0.119461 0)
(-0.0475619 0.0892381 0)
(-0.0521626 0.0104066 0)
(-0.0559767 -0.104898 0)
(-0.0660142 -0.236573 0)
(-0.0878501 -0.372379 0)
(-0.0124015 -0.382058 0)
(-0.00158625 0.0284141 0)
(-0.00593146 0.0526082 0)
(-0.0113445 0.0592142 0)
(-0.015393 0.0592531 0)
(-0.0179729 0.0580212 0)
(-0.0194929 0.0573998 0)
(-0.0201604 0.0580263 0)
(-0.0200131 0.0603258 0)
(-0.0189772 0.0648525 0)
(-0.0168748 0.0723809 0)
(-0.0133798 0.0837384 0)
(-0.00787062 0.0988097 0)
(-6.35962e-05 0.114217 0)
(0.00779636 0.118077 0)
(0.0136567 0.0908223 0)
(0.0157759 0.0187182 0)
(0.00626881 -0.0827193 0)
(-0.00963867 -0.204657 0)
(-0.0582333 -0.370197 0)
(0.00485042 -0.430347 0)
(-0.00261499 0.0325471 0)
(-0.00830999 0.0592829 0)
(-0.0143592 0.0651183 0)
(-0.0180483 0.0630134 0)
(-0.0196942 0.0600156 0)
(-0.019983 0.0581174 0)
(-0.0191408 0.0576607 0)
(-0.0170741 0.0588453 0)
(-0.0134837 0.0620556 0)
(-0.00790503 0.0678614 0)
(0.00023457 0.0767335 0)
(0.0121179 0.0887123 0)
(0.0282829 0.101177 0)
(0.0461147 0.105078 0)
(0.0607048 0.0846207 0)
(0.0681081 0.0250923 0)
(0.0560368 -0.0597738 0)
(0.038478 -0.169193 0)
(-0.0338807 -0.360515 0)
(0.023446 -0.463578 0)
(-0.00443548 0.0417758 0)
(-0.0140284 0.0651446 0)
(-0.0209653 0.06544 0)
(-0.0231832 0.0619967 0)
(-0.0229477 0.0586502 0)
(-0.0216422 0.056251 0)
(-0.0193301 0.0549538 0)
(-0.0156028 0.0548406 0)
(-0.00992922 0.0561757 0)
(-0.00176629 0.0592856 0)
(0.00983992 0.0645683 0)
(0.025947 0.0720508 0)
(0.0465667 0.0798549 0)
(0.0695698 0.0820602 0)
(0.0883526 0.0688157 0)
(0.0995147 0.0270531 0)
(0.0870137 -0.0369948 0)
(0.0679402 -0.138538 0)
(-0.0124573 -0.346161 0)
(0.0480511 -0.477028 0)
(-0.00297339 0.0372925 0)
(-0.0124808 0.0818973 0)
(-0.0248284 0.0815739 0)
(-0.0290036 0.0708152 0)
(-0.0287048 0.0629048 0)
(-0.0262749 0.0577123 0)
(-0.0218411 0.0539926 0)
(-0.0153507 0.0512679 0)
(-0.00669745 0.0496638 0)
(0.00450334 0.0491751 0)
(0.0187057 0.0503599 0)
(0.0367823 0.0527218 0)
(0.0580512 0.055883 0)
(0.0821157 0.055633 0)
(0.100871 0.0480987 0)
(0.116526 0.0219513 0)
(0.104032 -0.0228947 0)
(0.0920238 -0.119467 0)
(0.0266253 -0.318101 0)
(0.0884335 -0.451677 0)
(-0.0977186 0.0969591 0)
(-0.0744599 0.0762561 0)
(-0.0641296 0.0574724 0)
(-0.0418209 0.0495515 0)
(-0.0213021 0.0439815 0)
(-0.00110925 0.039444 0)
(0.0181306 0.0357198 0)
(0.0378262 0.0325696 0)
(0.0562207 0.0303848 0)
(0.0765241 0.0286219 0)
(0.0947718 0.0280229 0)
(0.117572 0.0277773 0)
(0.135098 0.0285884 0)
(0.161624 0.0285094 0)
(0.171191 0.025755 0)
(0.198144 0.013581 0)
(0.182737 -0.0169738 0)
(0.192262 -0.0873995 0)
(0.14021 -0.228995 0)
(0.168636 -0.341512 0)
(0.135553 0.109761 0)
(0.171784 0.0873327 0)
(0.231839 0.0656278 0)
(0.287088 0.0515212 0)
(0.329531 0.0423228 0)
(0.3668 0.0354343 0)
(0.395291 0.0302879 0)
(0.425229 0.0258524 0)
(0.446039 0.0226873 0)
(0.473239 0.0196111 0)
(0.488221 0.0178444 0)
(0.515578 0.0155916 0)
(0.525198 0.0150137 0)
(0.55389 0.0131096 0)
(0.554698 0.0131623 0)
(0.578754 0.00915595 0)
(0.553859 0.0040977 0)
(0.545896 -0.0156191 0)
(0.441413 -0.047246 0)
(0.339694 -0.099488 0)
)
;

boundaryField
{
    movingWall
    {
        type            fixedValue;
        value           uniform (1 0 0);
    }
    fixedWalls
    {
        type            noSlip;
    }
    frontAndBack
    {
        type            empty;
    }
}


// ************************************************************************* //
