/*--------------------------------*- C++ -*----------------------------------*\
| =========                 |                                                 |
| \\      /  F ield         | OpenFOAM: The Open Source CFD Toolbox           |
|  \\    /   O peration     | Version:  2212                                  |
|   \\  /    A nd           | Website:  www.openfoam.com                      |
|    \\/     M anipulation  |                                                 |
\*---------------------------------------------------------------------------*/
FoamFile
{
    version     2.0;
    format      ascii;
    arch        "LSB;label=32;scalar=64";
    class       volScalarField;
    location    "2.61";
    object      p;
}
// * * * * * * * * * * * * * * * * * * * * * * * * * * * * * * * * * * * * * //

dimensions      [0 2 -2 0 0 0 0];

internalField   nonuniform List<scalar> 
400
(
-1.13066e-08
-0.000142926
-0.000495128
-0.000991246
-0.00160343
-0.0023026
-0.0029427
-0.00332596
-0.00328347
-0.00266764
-0.00134215
0.000715279
0.00322489
0.00542223
0.00648459
0.00602912
0.00429992
0.00257323
0.00156721
0.00148075
0.000118335
-4.45851e-05
-0.0003354
-0.000698769
-0.0011508
-0.00174295
-0.00248086
-0.0032299
-0.0037022
-0.00355051
-0.00251654
-0.000604766
0.00178867
0.00398934
0.00518393
0.00493504
0.00348018
0.001846
0.00108231
0.00114129
0.000496086
0.000255484
-5.54785e-05
-0.00050089
-0.00121842
-0.00233024
-0.00380673
-0.00540406
-0.00669635
-0.00719367
-0.00656264
-0.00486372
-0.00242512
0.000161912
0.00210971
0.00279153
0.00217258
0.00102869
0.000144411
0.00011353
0.00102939
0.000658381
0.000175516
-0.000683296
-0.0021773
-0.00441073
-0.00718632
-0.0100515
-0.0124426
-0.0138257
-0.0138708
-0.0125996
-0.0102111
-0.00712496
-0.00400155
-0.00156064
-0.000277447
-0.000143675
-0.00073296
-0.00136453
0.00134012
0.0008046
-5.27901e-05
-0.00171589
-0.00445487
-0.00821993
-0.012554
-0.0167848
-0.0202815
-0.0225867
-0.0234417
-0.0227313
-0.0205559
-0.0171734
-0.0129931
-0.00859992
-0.00476977
-0.00230835
-0.00164992
-0.00340545
0.000990617
0.00025034
-0.00115795
-0.00387535
-0.00806613
-0.0134043
-0.0191209
-0.0243908
-0.0286079
-0.0314491
-0.032785
-0.0325224
-0.030722
-0.0275121
-0.0230151
-0.017436
-0.0113565
-0.0061385
-0.00377977
-0.00584357
-0.000305156
-0.0012639
-0.00328675
-0.00706047
-0.0125582
-0.0191254
-0.0257393
-0.0315256
-0.035977
-0.038921
-0.0403648
-0.0403343
-0.0388886
-0.0360859
-0.0318884
-0.0261628
-0.0190095
-0.0116309
-0.00710733
-0.00714468
-0.00254628
-0.00367561
-0.006232
-0.010829
-0.0172431
-0.0245386
-0.0315447
-0.0374269
-0.0418128
-0.0446568
-0.0460517
-0.0461008
-0.044887
-0.042454
-0.0387388
-0.0334831
-0.0264004
-0.0179833
-0.0109242
-0.00741549
-0.00539895
-0.00660592
-0.00951601
-0.0146059
-0.0214977
-0.0290772
-0.0361242
-0.0418857
-0.0461064
-0.04882
-0.0501563
-0.0502341
-0.0491376
-0.0469263
-0.0435989
-0.0389683
-0.0325765
-0.0242281
-0.015545
-0.00925
-0.00835737
-0.00953985
-0.0126009
-0.017861
-0.0248565
-0.0324116
-0.0393261
-0.044919
-0.0490034
-0.0516399
-0.0529557
-0.0530502
-0.0519974
-0.0498746
-0.0467573
-0.0426072
-0.0370561
-0.0295199
-0.0208471
-0.013254
-0.0109496
-0.012036
-0.0150533
-0.0202134
-0.0270293
-0.034373
-0.0411029
-0.0465697
-0.0505946
-0.0532208
-0.0545503
-0.0546581
-0.0536042
-0.0514748
-0.0484114
-0.0445225
-0.0396904
-0.0332063
-0.0255022
-0.0177996
-0.0129038
-0.0138108
-0.0166261
-0.0214428
-0.0278455
-0.034845
-0.0413883
-0.0468123
-0.0508741
-0.0535636
-0.0549408
-0.0550596
-0.0539681
-0.0517595
-0.0486258
-0.0447974
-0.0404646
-0.0348711
-0.0282761
-0.0209072
-0.0141788
-0.0147752
-0.0171759
-0.0214403
-0.0272447
-0.0338009
-0.0401631
-0.0456212
-0.0498165
-0.0526445
-0.0541088
-0.0542389
-0.053079
-0.050739
-0.0474403
-0.0434807
-0.0394058
-0.034301
-0.0285977
-0.021471
-0.0148472
-0.0150236
-0.0167626
-0.0202086
-0.0252193
-0.0312369
-0.0374123
-0.0429633
-0.0473841
-0.0504392
-0.0520537
-0.0522242
-0.0509838
-0.0484605
-0.0449204
-0.040746
-0.0365511
-0.0315326
-0.0267682
-0.0191814
-0.0150188
-0.0147376
-0.015568
-0.0179003
-0.0219025
-0.0272695
-0.0332337
-0.0389195
-0.04365
-0.0470285
-0.0488744
-0.0491308
-0.0478366
-0.0451021
-0.0412561
-0.0367276
-0.0321579
-0.0270423
-0.0234182
-0.0138615
-0.014813
-0.0141432
-0.0137832
-0.0146831
-0.0174824
-0.0221015
-0.0278303
-0.0336802
-0.0387934
-0.0425938
-0.0447779
-0.0452185
-0.0439434
-0.041031
-0.0368467
-0.0318349
-0.0267126
-0.0213187
-0.0181259
-0.00407351
-0.014321
-0.0133751
-0.0115551
-0.0108574
-0.0123957
-0.0162669
-0.0217793
-0.0278188
-0.0333677
-0.0376752
-0.040313
-0.0410583
-0.0399076
-0.0369151
-0.0323873
-0.0267015
-0.0205467
-0.013881
-0.00794174
0.0149684
-0.014425
-0.0126016
-0.00883149
-0.00654539
-0.00701047
-0.0103337
-0.0157455
-0.0220173
-0.0280387
-0.0329143
-0.0361157
-0.0373043
-0.0364249
-0.0334805
-0.0286336
-0.0219158
-0.0135218
-0.00226023
0.0145326
0.0551994
-0.011826
-0.0120235
-0.00632526
-0.00259154
-0.00240953
-0.00555633
-0.0110529
-0.0176019
-0.0240745
-0.0294766
-0.0332514
-0.0349737
-0.0345475
-0.0317154
-0.0263393
-0.0176154
-0.00431539
0.0183228
0.058068
0.127582
-0.0295361
-0.0110109
-0.00144736
0.0020313
0.00155979
-0.00196035
-0.0077272
-0.0145748
-0.0213848
-0.0271426
-0.0312704
-0.0333249
-0.0331718
-0.0304021
-0.024376
-0.0129213
0.00826794
0.0490943
0.120474
0.223993
)
;

boundaryField
{
    movingWall
    {
        type            zeroGradient;
    }
    fixedWalls
    {
        type            zeroGradient;
    }
    frontAndBack
    {
        type            empty;
    }
}


// ************************************************************************* //
