/*--------------------------------*- C++ -*----------------------------------*\
| =========                 |                                                 |
| \\      /  F ield         | OpenFOAM: The Open Source CFD Toolbox           |
|  \\    /   O peration     | Version:  2212                                  |
|   \\  /    A nd           | Website:  www.openfoam.com                      |
|    \\/     M anipulation  |                                                 |
\*---------------------------------------------------------------------------*/
FoamFile
{
    version     2.0;
    format      ascii;
    arch        "LSB;label=32;scalar=64";
    class       volVectorField;
    location    "4.815";
    object      U;
}
// * * * * * * * * * * * * * * * * * * * * * * * * * * * * * * * * * * * * * //

dimensions      [0 1 -1 0 0 0 0];

internalField   nonuniform List<vector> 
400
(
(0.00167155 -0.00167478 0)
(0.00480527 -0.00188099 0)
(0.00653859 -0.00119431 0)
(0.00561653 -0.000570786 0)
(0.00151965 0.00018788 0)
(-0.00685742 0.00173852 0)
(-0.0205868 0.00476862 0)
(-0.0394473 0.0086969 0)
(-0.0606448 0.0112489 0)
(-0.0789337 0.0104874 0)
(-0.0896186 0.00677435 0)
(-0.0903173 0.00168821 0)
(-0.0801609 -0.00358292 0)
(-0.0600191 -0.00823716 0)
(-0.0336311 -0.0108154 0)
(-0.00546007 -0.00978074 0)
(0.0165429 -0.00479486 0)
(0.0243309 0.00274408 0)
(0.0161175 0.00644127 0)
(0.00430655 0.00470167 0)
(0.00170131 -0.00502581 0)
(0.00310943 -0.00399008 0)
(-0.000486794 0.000605912 0)
(-0.011379 0.00643457 0)
(-0.0314084 0.0140102 0)
(-0.0610173 0.023686 0)
(-0.0965829 0.0329318 0)
(-0.131094 0.0369637 0)
(-0.158552 0.0334307 0)
(-0.175675 0.0233755 0)
(-0.181054 0.00914378 0)
(-0.174741 -0.00690634 0)
(-0.15731 -0.0230534 0)
(-0.129498 -0.0367817 0)
(-0.0935649 -0.0444505 0)
(-0.0522444 -0.0417739 0)
(-0.0115173 -0.0263514 0)
(0.0167491 -0.00136402 0)
(0.0177924 0.0161327 0)
(0.00552829 0.0147682 0)
(-0.000257893 -0.00570616 0)
(-0.00541561 0.000866341 0)
(-0.0196216 0.0142927 0)
(-0.0444351 0.0311443 0)
(-0.0801319 0.0492676 0)
(-0.121837 0.0640838 0)
(-0.161852 0.0703058 0)
(-0.194683 0.0658364 0)
(-0.218222 0.0520779 0)
(-0.231874 0.0315148 0)
(-0.235649 0.00649263 0)
(-0.23021 -0.0209513 0)
(-0.215866 -0.0486463 0)
(-0.192115 -0.0729724 0)
(-0.158689 -0.0887921 0)
(-0.115552 -0.0890686 0)
(-0.064507 -0.06699 0)
(-0.0138841 -0.0227766 0)
(0.00943186 0.0177732 0)
(0.00415366 0.0234959 0)
(-0.00347164 0.000539541 0)
(-0.0174882 0.0172742 0)
(-0.0434133 0.0413994 0)
(-0.0794407 0.0679579 0)
(-0.122545 0.090827 0)
(-0.165283 0.103484 0)
(-0.201237 0.102575 0)
(-0.228474 0.0894234 0)
(-0.247256 0.0671832 0)
(-0.258186 0.0385587 0)
(-0.262102 0.0054261 0)
(-0.259809 -0.0308831 0)
(-0.251241 -0.0681236 0)
(-0.235353 -0.103355 0)
(-0.210153 -0.131104 0)
(-0.172939 -0.142572 0)
(-0.121155 -0.125587 0)
(-0.0567756 -0.0708708 0)
(-0.00102641 0.00340514 0)
(0.00474038 0.0281345 0)
(-0.00664274 0.0148338 0)
(-0.0286344 0.044053 0)
(-0.0630654 0.0768542 0)
(-0.104068 0.108526 0)
(-0.146717 0.130735 0)
(-0.183882 0.137725 0)
(-0.212119 0.129094 0)
(-0.23182 0.108435 0)
(-0.244277 0.0796105 0)
(-0.251216 0.0454076 0)
(-0.254329 0.00736234 0)
(-0.254542 -0.0337172 0)
(-0.25163 -0.0766728 0)
(-0.245039 -0.120189 0)
(-0.231955 -0.160297 0)
(-0.207758 -0.188547 0)
(-0.166405 -0.189611 0)
(-0.103218 -0.142707 0)
(-0.02218 -0.0389509 0)
(0.00735328 0.0269754 0)
(-0.00847335 0.03484 0)
(-0.0350271 0.0764522 0)
(-0.0727834 0.114561 0)
(-0.112782 0.147159 0)
(-0.149894 0.165435 0)
(-0.178644 0.165398 0)
(-0.198074 0.149265 0)
(-0.209732 0.122114 0)
(-0.215602 0.0882945 0)
(-0.218171 0.0507915 0)
(-0.219413 0.011072 0)
(-0.220337 -0.0304463 0)
(-0.221143 -0.0742413 0)
(-0.221923 -0.120698 0)
(-0.220479 -0.168597 0)
(-0.211707 -0.212451 0)
(-0.18752 -0.238058 0)
(-0.139329 -0.218154 0)
(-0.062684 -0.118799 0)
(0.00579866 0.0141097 0)
(-0.00824731 0.0568644 0)
(-0.0351656 0.109683 0)
(-0.0714943 0.149959 0)
(-0.106576 0.180511 0)
(-0.136082 0.193169 0)
(-0.156389 0.185814 0)
(-0.1682 0.162731 0)
(-0.173629 0.130058 0)
(-0.175089 0.0925661 0)
(-0.175091 0.0532734 0)
(-0.175154 0.0134192 0)
(-0.175965 -0.0269517 0)
(-0.178072 -0.0689916 0)
(-0.182012 -0.113992 0)
(-0.187124 -0.163073 0)
(-0.189758 -0.215082 0)
(-0.182008 -0.261022 0)
(-0.153878 -0.274648 0)
(-0.0991085 -0.205551 0)
(-0.00889527 -0.0146833 0)
(-0.00609471 0.0773465 0)
(-0.029625 0.140097 0)
(-0.0611055 0.180563 0)
(-0.0894389 0.20755 0)
(-0.11134 0.214117 0)
(-0.124784 0.199836 0)
(-0.131366 0.170679 0)
(-0.133388 0.133622 0)
(-0.133313 0.0936649 0)
(-0.133097 0.0535286 0)
(-0.133437 0.0139359 0)
(-0.134523 -0.0254891 0)
(-0.136819 -0.065782 0)
(-0.141013 -0.108185 0)
(-0.147708 -0.154693 0)
(-0.155571 -0.207668 0)
(-0.158595 -0.265133 0)
(-0.146397 -0.307496 0)
(-0.111977 -0.276702 0)
(-0.0308581 -0.0752022 0)
(-0.00270394 0.0932625 0)
(-0.0202869 0.165064 0)
(-0.0448929 0.204841 0)
(-0.0659774 0.227716 0)
(-0.0811575 0.228663 0)
(-0.0895652 0.208718 0)
(-0.0930922 0.175027 0)
(-0.0938767 0.135081 0)
(-0.0940227 0.0938937 0)
(-0.0947109 0.0537073 0)
(-0.0959966 0.0146149 0)
(-0.0977895 -0.0241739 0)
(-0.100264 -0.0634536 0)
(-0.103928 -0.103939 0)
(-0.109928 -0.147284 0)
(-0.118985 -0.197453 0)
(-0.12792 -0.258874 0)
(-0.126245 -0.322721 0)
(-0.10726 -0.334116 0)
(-0.0372479 -0.162995 0)
(0.00122232 0.102334 0)
(-0.00886876 0.182806 0)
(-0.0254779 0.222307 0)
(-0.0393975 0.241816 0)
(-0.0488124 0.238566 0)
(-0.0536204 0.214625 0)
(-0.0555045 0.177915 0)
(-0.0561158 0.136299 0)
(-0.0569781 0.0947089 0)
(-0.0586442 0.0548557 0)
(-0.0608899 0.0162766 0)
(-0.0635692 -0.0220947 0)
(-0.0666776 -0.0609258 0)
(-0.0704012 -0.100475 0)
(-0.0756795 -0.141478 0)
(-0.0840907 -0.187626 0)
(-0.0957205 -0.24727 0)
(-0.100469 -0.323504 0)
(-0.0950358 -0.371532 0)
(-0.0308731 -0.242007 0)
(0.00509223 0.103472 0)
(0.00296045 0.192343 0)
(-0.00533599 0.232743 0)
(-0.0124075 0.249792 0)
(-0.0167612 0.243689 0)
(-0.0186105 0.217498 0)
(-0.0192488 0.179474 0)
(-0.0197201 0.137475 0)
(-0.0209692 0.0961875 0)
(-0.0231715 0.0569398 0)
(-0.0260367 0.0189939 0)
(-0.0294988 -0.0188107 0)
(-0.0335753 -0.0571846 0)
(-0.0382169 -0.0962322 0)
(-0.0439781 -0.135926 0)
(-0.0521126 -0.178732 0)
(-0.065532 -0.234414 0)
(-0.0741416 -0.317192 0)
(-0.081136 -0.39599 0)
(-0.0229212 -0.306491 0)
(0.00839755 0.0970225 0)
(0.0141428 0.193315 0)
(0.0140318 0.236242 0)
(0.0136437 0.252549 0)
(0.0142695 0.245444 0)
(0.01547 0.218757 0)
(0.016337 0.180745 0)
(0.0163988 0.139109 0)
(0.01526 0.0983394 0)
(0.0129736 0.0597028 0)
(0.00980491 0.0224937 0)
(0.00571638 -0.0144471 0)
(0.000563301 -0.0519537 0)
(-0.00552035 -0.0901735 0)
(-0.0129422 -0.128775 0)
(-0.0218838 -0.168826 0)
(-0.0376478 -0.219368 0)
(-0.0487706 -0.303514 0)
(-0.0679192 -0.407754 0)
(-0.014467 -0.359367 0)
(0.01024 0.0841286 0)
(0.0232598 0.185751 0)
(0.0308847 0.232381 0)
(0.0367825 0.249104 0)
(0.0424123 0.242235 0)
(0.0473351 0.216472 0)
(0.0507385 0.179755 0)
(0.0523756 0.139437 0)
(0.0521986 0.0998422 0)
(0.0504234 0.0623055 0)
(0.0472889 0.0263031 0)
(0.0426968 -0.00926451 0)
(0.0364733 -0.0453245 0)
(0.0287271 -0.0820904 0)
(0.0186737 -0.119222 0)
(0.00742776 -0.156994 0)
(-0.0119253 -0.203051 0)
(-0.0243984 -0.285498 0)
(-0.0559253 -0.410293 0)
(-0.0061647 -0.401262 0)
(0.00978183 0.0670147 0)
(0.0288082 0.170035 0)
(0.0440487 0.221355 0)
(0.0565195 0.240324 0)
(0.0677446 0.235357 0)
(0.077364 0.212015 0)
(0.0845146 0.177775 0)
(0.0888936 0.139529 0)
(0.0905798 0.101531 0)
(0.089885 0.0653442 0)
(0.0871459 0.0308179 0)
(0.0821138 -0.00307859 0)
(0.0746566 -0.0369477 0)
(0.0650506 -0.0713957 0)
(0.0519385 -0.106245 0)
(0.0371403 -0.14141 0)
(0.0128378 -0.182942 0)
(-0.000181694 -0.262301 0)
(-0.0449334 -0.406062 0)
(0.00271988 -0.435732 0)
(0.00685901 0.0493343 0)
(0.0291163 0.148462 0)
(0.0507304 0.202874 0)
(0.0694998 0.223648 0)
(0.0868751 0.220743 0)
(0.10247 0.200604 0)
(0.115039 0.17007 0)
(0.123901 0.135282 0)
(0.12897 0.10024 0)
(0.130507 0.0666348 0)
(0.128786 0.0347052 0)
(0.123863 0.00362071 0)
(0.115273 -0.0269613 0)
(0.103637 -0.05791 0)
(0.0867136 -0.0892903 0)
(0.067696 -0.121735 0)
(0.0378323 -0.159662 0)
(0.0235451 -0.236292 0)
(-0.0346107 -0.398399 0)
(0.0134058 -0.464023 0)
(0.00235971 0.0346923 0)
(0.0234255 0.123585 0)
(0.0505593 0.179344 0)
(0.076139 0.202177 0)
(0.100666 0.201802 0)
(0.123415 0.185409 0)
(0.142736 0.159409 0)
(0.157417 0.129075 0)
(0.167044 0.0980218 0)
(0.171838 0.0679458 0)
(0.171754 0.0394333 0)
(0.167513 0.0120642 0)
(0.157729 -0.014525 0)
(0.144097 -0.0410825 0)
(0.122976 -0.0679182 0)
(0.0996333 -0.0965783 0)
(0.0640159 -0.131718 0)
(0.046664 -0.206769 0)
(-0.0229062 -0.386702 0)
(0.0284346 -0.485298 0)
(-0.00340884 0.028775 0)
(0.00992011 0.101382 0)
(0.0367577 0.148268 0)
(0.0684443 0.168859 0)
(0.10117 0.170007 0)
(0.132726 0.157717 0)
(0.160564 0.137331 0)
(0.182958 0.113016 0)
(0.198876 0.0878515 0)
(0.208687 0.0633646 0)
(0.211551 0.0402983 0)
(0.209266 0.018516 0)
(0.199061 -0.00235494 0)
(0.184531 -0.0228101 0)
(0.159903 -0.0433313 0)
(0.133505 -0.0670069 0)
(0.0922528 -0.100946 0)
(0.0695409 -0.179462 0)
(-0.00455594 -0.369815 0)
(0.0520677 -0.491515 0)
(-0.013905 0.0186741 0)
(-0.00750226 0.0882074 0)
(0.0190094 0.123989 0)
(0.0560334 0.136949 0)
(0.0969716 0.136452 0)
(0.137144 0.127249 0)
(0.1732 0.112617 0)
(0.202861 0.0948978 0)
(0.224612 0.0765151 0)
(0.23958 0.0584753 0)
(0.24556 0.0417369 0)
(0.246453 0.0261767 0)
(0.237192 0.0119602 0)
(0.22547 -0.00172193 0)
(0.200675 -0.0156628 0)
(0.176943 -0.0345572 0)
(0.132883 -0.0673379 0)
(0.107498 -0.145735 0)
(0.0373187 -0.326088 0)
(0.0923053 -0.455859 0)
(-0.105944 0.0825284 0)
(-0.0776922 0.0690839 0)
(-0.0485876 0.0732978 0)
(0.00360055 0.0777127 0)
(0.0569185 0.0779845 0)
(0.109446 0.0736987 0)
(0.156424 0.0663761 0)
(0.198603 0.0570057 0)
(0.230581 0.0473859 0)
(0.258623 0.0377927 0)
(0.274313 0.0292021 0)
(0.289461 0.0212853 0)
(0.289887 0.0145987 0)
(0.294101 0.00826428 0)
(0.277996 0.00134462 0)
(0.270981 -0.00979588 0)
(0.231874 -0.0353792 0)
(0.21794 -0.0953367 0)
(0.150173 -0.229723 0)
(0.170666 -0.341476 0)
(0.130011 0.103773 0)
(0.158409 0.0753075 0)
(0.212308 0.0533184 0)
(0.270811 0.0416946 0)
(0.323325 0.0359592 0)
(0.37566 0.0319718 0)
(0.420135 0.0289267 0)
(0.465329 0.0255854 0)
(0.498322 0.0229099 0)
(0.533494 0.019723 0)
(0.552893 0.01757 0)
(0.5787 0.0146408 0)
(0.584875 0.013207 0)
(0.603286 0.0103959 0)
(0.59481 0.00943976 0)
(0.603428 0.00504997 0)
(0.567736 0.000129631 0)
(0.547676 -0.018292 0)
(0.43581 -0.0504141 0)
(0.33681 -0.101397 0)
)
;

boundaryField
{
    movingWall
    {
        type            fixedValue;
        value           uniform (1 0 0);
    }
    fixedWalls
    {
        type            noSlip;
    }
    frontAndBack
    {
        type            empty;
    }
}


// ************************************************************************* //
