/*--------------------------------*- C++ -*----------------------------------*\
| =========                 |                                                 |
| \\      /  F ield         | OpenFOAM: The Open Source CFD Toolbox           |
|  \\    /   O peration     | Version:  2212                                  |
|   \\  /    A nd           | Website:  www.openfoam.com                      |
|    \\/     M anipulation  |                                                 |
\*---------------------------------------------------------------------------*/
FoamFile
{
    version     2.0;
    format      ascii;
    arch        "LSB;label=32;scalar=64";
    class       volScalarField;
    location    "3.165";
    object      p;
}
// * * * * * * * * * * * * * * * * * * * * * * * * * * * * * * * * * * * * * //

dimensions      [0 2 -2 0 0 0 0];

internalField   nonuniform List<scalar> 
400
(
1.6158e-08
-0.000147431
-0.000517348
-0.00103658
-0.00167618
-0.00241034
-0.00307915
-0.00347862
-0.00344124
-0.00281568
-0.0014547
0.000668112
0.00325225
0.00549786
0.00654826
0.00601568
0.00418225
0.00238375
0.00135735
0.00128026
0.000117057
-5.21205e-05
-0.000358274
-0.000734644
-0.00120247
-0.00182432
-0.00260773
-0.00340635
-0.00391435
-0.00376794
-0.00270032
-0.000723986
0.00174359
0.0039943
0.00518366
0.00487044
0.00331691
0.00162835
0.000853445
0.000930115
0.000518724
0.000261044
-6.70175e-05
-0.000533235
-0.00129074
-0.00247085
-0.00403686
-0.00572525
-0.00708605
-0.00760751
-0.00694989
-0.00519212
-0.00267596
-2.00708e-05
0.00195919
0.00262492
0.00195643
0.000778645
-0.000113347
-0.00012553
0.0010972
0.000703963
0.000183808
-0.000735768
-0.00233109
-0.00470246
-0.00762836
-0.0106305
-0.0131221
-0.0145533
-0.0145912
-0.0132688
-0.0107939
-0.00760734
-0.00439428
-0.00189092
-0.000570767
-0.000415978
-0.00099864
-0.00162967
0.00147155
0.000894646
-4.05094e-05
-0.00183487
-0.00475931
-0.00873986
-0.0132796
-0.0176797
-0.0212963
-0.0236677
-0.0245346
-0.023778
-0.0215102
-0.0180048
-0.0136865
-0.00915274
-0.00519086
-0.00262481
-0.00190912
-0.00370137
0.00114991
0.000349766
-0.00118747
-0.00411475
-0.00857324
-0.0141851
-0.0201359
-0.0255837
-0.0299214
-0.0328302
-0.0341817
-0.0338777
-0.0319891
-0.0286512
-0.0239943
-0.0182296
-0.0119488
-0.00654488
-0.00408008
-0.006172
-0.000175754
-0.00121134
-0.00341237
-0.0074614
-0.0132842
-0.0201516
-0.0270016
-0.0329577
-0.0375222
-0.0405311
-0.0419934
-0.0419314
-0.0404059
-0.0374763
-0.033109
-0.0271765
-0.0197877
-0.0121694
-0.00747273
-0.00743229
-0.00250698
-0.00372363
-0.00649232
-0.0114063
-0.0181713
-0.0257668
-0.0329952
-0.0390333
-0.0435244
-0.0464322
-0.0478511
-0.0478808
-0.0465989
-0.0440453
-0.0401581
-0.0346869
-0.0273569
-0.0186713
-0.0113618
-0.0076798
-0.00548498
-0.00678201
-0.00991988
-0.0153442
-0.0225893
-0.0304533
-0.0377021
-0.0436034
-0.0479201
-0.0506954
-0.0520604
-0.0521298
-0.0509797
-0.0486611
-0.0451694
-0.0403238
-0.0336847
-0.0250644
-0.0161084
-0.0096023
-0.00856644
-0.00983677
-0.013127
-0.0187211
-0.0260583
-0.0338774
-0.0409723
-0.0466879
-0.0508564
-0.0535483
-0.0548929
-0.0549867
-0.0538954
-0.0516847
-0.0484201
-0.0440653
-0.0382724
-0.0304766
-0.0215548
-0.0137736
-0.0112478
-0.0124197
-0.0156579
-0.0211402
-0.0282809
-0.0358708
-0.042764
-0.0483378
-0.0524341
-0.0551062
-0.0564606
-0.0565714
-0.055492
-0.0532941
-0.0501041
-0.046026
-0.0409603
-0.0342322
-0.0263117
-0.0184617
-0.0132454
-0.0142343
-0.0172558
-0.0223739
-0.0290837
-0.0363192
-0.0430184
-0.0485399
-0.052663
-0.0553887
-0.0567851
-0.056907
-0.0557996
-0.0535349
-0.0502917
-0.0462869
-0.0417266
-0.0358992
-0.0291168
-0.0216362
-0.0145237
-0.0151871
-0.0177737
-0.0223144
-0.0284098
-0.0352018
-0.0417253
-0.0472831
-0.051536
-0.0543946
-0.0558728
-0.056003
-0.0548257
-0.0524349
-0.0490327
-0.0449002
-0.0405947
-0.0352538
-0.0293899
-0.0221707
-0.0151693
-0.0153841
-0.0172776
-0.0209689
-0.0262561
-0.0325172
-0.0388723
-0.0445388
-0.0490254
-0.0521125
-0.0537374
-0.0539024
-0.0526358
-0.0500533
-0.0463999
-0.0420404
-0.037594
-0.0323282
-0.0274401
-0.019743
-0.0153043
-0.0150245
-0.0159592
-0.0184933
-0.0227521
-0.028376
-0.0345516
-0.0403853
-0.0452045
-0.0486259
-0.0504821
-0.0507229
-0.0493864
-0.0465692
-0.0425807
-0.0378347
-0.0329833
-0.0275996
-0.0238664
-0.0141674
-0.0150488
-0.0143482
-0.0140249
-0.0150608
-0.0180833
-0.0229718
-0.028953
-0.0349971
-0.040236
-0.0441008
-0.0463004
-0.0467153
-0.045373
-0.0423419
-0.0379701
-0.0326925
-0.0272497
-0.0215632
-0.0181696
-0.00402169
-0.0144912
-0.0134915
-0.0116258
-0.0109751
-0.0126919
-0.0168401
-0.0226474
-0.0289343
-0.0346557
-0.0390591
-0.0417256
-0.0424402
-0.0412003
-0.0380451
-0.0332766
-0.0272643
-0.0207281
-0.0136976
-0.00745789
0.01544
-0.0144995
-0.0126158
-0.00872213
-0.00638557
-0.00698037
-0.0105795
-0.0163176
-0.0228828
-0.0291226
-0.0341289
-0.0373765
-0.0385325
-0.0375455
-0.0344174
-0.0292914
-0.0221879
-0.0133216
-0.00158899
0.0155405
0.0560834
-0.0118008
-0.0118972
-0.00598329
-0.00215912
-0.0020992
-0.00552608
-0.0113698
-0.018245
-0.0249698
-0.0305291
-0.0343673
-0.036066
-0.0355327
-0.0324984
-0.0268098
-0.0176631
-0.00384118
0.0193164
0.0593415
0.128684
-0.0295019
-0.0107717
-0.000972367
0.00259012
0.00199926
-0.00179974
-0.00791939
-0.0151061
-0.022185
-0.0281169
-0.0323226
-0.0343631
-0.0341077
-0.0311412
-0.0248189
-0.0129552
0.00876121
0.0500662
0.121645
0.225034
)
;

boundaryField
{
    movingWall
    {
        type            zeroGradient;
    }
    fixedWalls
    {
        type            zeroGradient;
    }
    frontAndBack
    {
        type            empty;
    }
}


// ************************************************************************* //
