/*--------------------------------*- C++ -*----------------------------------*\
| =========                 |                                                 |
| \\      /  F ield         | OpenFOAM: The Open Source CFD Toolbox           |
|  \\    /   O peration     | Version:  2212                                  |
|   \\  /    A nd           | Website:  www.openfoam.com                      |
|    \\/     M anipulation  |                                                 |
\*---------------------------------------------------------------------------*/
FoamFile
{
    version     2.0;
    format      ascii;
    arch        "LSB;label=32;scalar=64";
    class       volScalarField;
    location    "0.915";
    object      p;
}
// * * * * * * * * * * * * * * * * * * * * * * * * * * * * * * * * * * * * * //

dimensions      [0 2 -2 0 0 0 0];

internalField   nonuniform List<scalar> 
400
(
3.679e-06
-0.00582374
-0.0129617
-0.0184141
-0.0204318
-0.0182382
-0.0117737
-0.00148354
0.0118376
0.0271495
0.043245
0.0588238
0.0725795
0.0833094
0.0900537
0.0922678
0.0900266
0.0842446
0.0768814
0.0710679
0.00578235
-0.000216928
-0.00580295
-0.00954177
-0.0105983
-0.00843222
-0.00296955
0.00547445
0.0163032
0.028712
0.0417502
0.0543866
0.0655872
0.0744108
0.0801211
0.0823166
0.081078
0.0770555
0.0712748
0.0653185
0.0133366
0.00503491
-0.000994324
-0.00442233
-0.0052723
-0.00326341
0.00160279
0.00902796
0.0185024
0.0293496
0.0407658
0.0518701
0.0617691
0.0696371
0.0748078
0.0768789
0.0758423
0.0720865
0.065806
0.057536
0.0201409
0.00869718
0.00122687
-0.00266773
-0.00372149
-0.0018848
0.00273172
0.00978497
0.0187807
0.0290954
0.0399923
0.0506544
0.0602334
0.0679166
0.0730039
0.0750022
0.0737665
0.0694567
0.0616034
0.0501029
0.0245034
0.00977435
0.000590837
-0.00398604
-0.00530155
-0.00350681
0.00117517
0.00833496
0.0174624
0.0279494
0.0390853
0.0500703
0.0600493
0.0681655
0.0736269
0.0757983
0.0743695
0.0692903
0.0595259
0.0445374
0.0251792
0.00715125
-0.00380092
-0.00905625
-0.0105114
-0.00849937
-0.00335634
0.00442983
0.0143137
0.0256794
0.0378142
0.0499037
0.0610485
0.0703035
0.076735
0.0795173
0.0781394
0.072334
0.0605396
0.0418903
0.0210947
-0.000261234
-0.0129334
-0.0187083
-0.0200289
-0.0174132
-0.0113178
-0.00231924
0.00899083
0.0219766
0.0359101
0.0499448
0.0631126
0.0743457
0.0825222
0.0865699
0.0857211
0.0794475
0.0656207
0.043072
0.0111439
-0.0136172
-0.0278741
-0.0338533
-0.0346026
-0.0308566
-0.0232122
-0.0123446
0.0011053
0.0164843
0.033053
0.0499341
0.0660838
0.0802903
0.0912011
0.0974304
0.0978707
0.0916364
0.0758967
0.0491168
-0.00596618
-0.0342656
-0.0498692
-0.0555477
-0.0550892
-0.0495137
-0.0395927
-0.0261126
-0.00975656
0.00882347
0.0289014
0.049594
0.069798
0.0881551
0.103048
0.112702
0.115551
0.110192
0.0928347
0.0614119
-0.0318562
-0.0638753
-0.0804161
-0.0850064
-0.0824193
-0.0740774
-0.06098
-0.0440358
-0.0239508
-0.00133633
0.0231461
0.0486615
0.0740961
0.0979728
0.118397
0.133126
0.139989
0.136819
0.118441
0.0819343
-0.0686665
-0.104603
-0.121344
-0.123589
-0.117515
-0.105126
-0.0877174
-0.0663246
-0.0416362
-0.0141549
0.0156062
0.0469538
0.0788564
0.109794
0.137624
0.159586
0.172728
0.173779
0.155521
0.113571
-0.119401
-0.159356
-0.174914
-0.172756
-0.161147
-0.142928
-0.119758
-0.0927761
-0.0625765
-0.0294468
0.00637395
0.0444743
0.0840559
0.123704
0.161137
0.193087
0.215669
0.224078
0.208051
0.160633
-0.188627
-0.232241
-0.243938
-0.233947
-0.213693
-0.187153
-0.156371
-0.1225
-0.0858968
-0.0464711
-0.00401337
0.0415399
0.0898432
0.13983
0.18932
0.23469
0.271076
0.291665
0.281744
0.229777
-0.283973
-0.329303
-0.33183
-0.308278
-0.274707
-0.236438
-0.195763
-0.153609
-0.109839
-0.0637437
-0.0144364
0.0388649
0.0965557
0.158278
0.222376
0.285289
0.341399
0.381576
0.384915
0.331835
-0.419317
-0.459669
-0.442349
-0.39579
-0.342127
-0.287737
-0.234614
-0.182928
-0.131607
-0.0789831
-0.0232121
0.0374772
0.104555
0.17884
0.259863
0.344972
0.428618
0.499702
0.529677
0.485393
-0.62053
-0.636742
-0.578675
-0.494191
-0.411238
-0.335656
-0.267778
-0.205975
-0.147534
-0.0893806
-0.0284236
0.0383507
0.113809
0.200474
0.299977
0.412027
0.533032
0.651777
0.732774
0.722398
-0.935921
-0.878512
-0.741739
-0.597946
-0.47439
-0.372656
-0.288865
-0.21776
-0.15395
-0.092461
-0.0287145
0.0416985
0.123266
0.220721
0.338929
0.482157
0.651999
0.841344
1.01527
1.09751
-1.47642
-1.20663
-0.9205
-0.691385
-0.517302
-0.387541
-0.290058
-0.213334
-0.148121
-0.0872124
-0.0245746
0.0454605
0.12894
0.233074
0.367106
0.542681
0.771296
1.05932
1.40329
1.73014
-2.53965
-1.63054
-1.04443
-0.710955
-0.495747
-0.35209
-0.254527
-0.18358
-0.126166
-0.073592
-0.019266
0.0427899
0.119215
0.218786
0.354815
0.547987
0.826396
1.23658
1.91168
2.9242
-4.36666
-2.04463
-0.973539
-0.563177
-0.357843
-0.240143
-0.170116
-0.12378
-0.0874781
-0.0535072
-0.0166515
0.0276636
0.0846104
0.161732
0.272414
0.442102
0.718222
1.22571
2.41104
4.84853
)
;

boundaryField
{
    movingWall
    {
        type            zeroGradient;
    }
    fixedWalls
    {
        type            zeroGradient;
    }
    frontAndBack
    {
        type            empty;
    }
}


// ************************************************************************* //
