/*--------------------------------*- C++ -*----------------------------------*\
| =========                 |                                                 |
| \\      /  F ield         | OpenFOAM: The Open Source CFD Toolbox           |
|  \\    /   O peration     | Version:  2212                                  |
|   \\  /    A nd           | Website:  www.openfoam.com                      |
|    \\/     M anipulation  |                                                 |
\*---------------------------------------------------------------------------*/
FoamFile
{
    version     2.0;
    format      ascii;
    arch        "LSB;label=32;scalar=64";
    class       volVectorField;
    location    "0.63";
    object      U;
}
// * * * * * * * * * * * * * * * * * * * * * * * * * * * * * * * * * * * * * //

dimensions      [0 1 -1 0 0 0 0];

internalField   nonuniform List<vector> 
400
(
(0.000253417 -0.000250454 0)
(0.000141221 0.000111428 0)
(-0.00117705 0.000564632 0)
(-0.00348132 0.00088503 0)
(-0.00637788 0.00104576 0)
(-0.00947008 0.0010618 0)
(-0.0124038 0.000957901 0)
(-0.0148859 0.000760481 0)
(-0.0166906 0.000494673 0)
(-0.0176595 0.000184571 0)
(-0.0177034 -0.00014528 0)
(-0.0168062 -0.000468401 0)
(-0.0150311 -0.000755467 0)
(-0.0125259 -0.000974329 0)
(-0.00952699 -0.00109126 0)
(-0.00635536 -0.00107407 0)
(-0.00340082 -0.000898171 0)
(-0.00108647 -0.000556415 0)
(0.00019645 -9.03638e-05 0)
(0.00026788 0.000262405 0)
(-7.74707e-05 -0.000169389 0)
(-0.00161167 0.00164493 0)
(-0.00569332 0.00361755 0)
(-0.0117197 0.00503519 0)
(-0.0188938 0.00574366 0)
(-0.0264029 0.00576064 0)
(-0.0334719 0.00517206 0)
(-0.0394301 0.00409283 0)
(-0.0437476 0.00264783 0)
(-0.0460509 0.000966988 0)
(-0.0461333 -0.000813307 0)
(-0.0439649 -0.0025473 0)
(-0.0397044 -0.00407899 0)
(-0.0337054 -0.00524554 0)
(-0.0265154 -0.00588703 0)
(-0.018856 -0.0058653 0)
(-0.0115675 -0.00509512 0)
(-0.00551367 -0.00358966 0)
(-0.00149318 -0.00155922 0)
(-4.25775e-05 0.000227489 0)
(-0.000528651 0.0010917 0)
(-0.0037117 0.00573673 0)
(-0.0105898 0.0102253 0)
(-0.0199934 0.0134087 0)
(-0.0307674 0.0149475 0)
(-0.0418258 0.01484 0)
(-0.0521244 0.0132568 0)
(-0.0607495 0.010457 0)
(-0.0669753 0.00674251 0)
(-0.0702888 0.00243901 0)
(-0.0704067 -0.00210679 0)
(-0.0672901 -0.00652608 0)
(-0.0611575 -0.0104301 0)
(-0.0524928 -0.0134222 0)
(-0.0420404 -0.0151247 0)
(-0.0307763 -0.0152268 0)
(-0.0198306 -0.013557 0)
(-0.0103643 -0.0101796 0)
(-0.00354877 -0.00555143 0)
(-0.000476878 -0.000948875 0)
(-0.000928303 0.00348012 0)
(-0.00569197 0.0122216 0)
(-0.0153031 0.0199233 0)
(-0.0279192 0.0251998 0)
(-0.0419889 0.0275992 0)
(-0.0561838 0.0271397 0)
(-0.0692579 0.0241109 0)
(-0.0801325 0.0189553 0)
(-0.0879556 0.0121965 0)
(-0.0921265 0.00440531 0)
(-0.0923111 -0.00380843 0)
(-0.0884574 -0.0117977 0)
(-0.0808115 -0.0188838 0)
(-0.0699285 -0.0243783 0)
(-0.0566736 -0.0276298 0)
(-0.042198 -0.0281039 0)
(-0.0278587 -0.0254996 0)
(-0.0150948 -0.0198931 0)
(-0.00550543 -0.0119285 0)
(-0.000861662 -0.00322506 0)
(-0.00127903 0.00687833 0)
(-0.00753662 0.0209553 0)
(-0.0198063 0.0325128 0)
(-0.0355376 0.0401063 0)
(-0.0527475 0.0432936 0)
(-0.069864 0.042196 0)
(-0.08547 0.0372803 0)
(-0.0983682 0.0292152 0)
(-0.107628 0.0187785 0)
(-0.112597 0.00681403 0)
(-0.112906 -0.00578108 0)
(-0.108482 -0.0180563 0)
(-0.0995695 -0.0290138 0)
(-0.0867454 -0.0376357 0)
(-0.0709407 -0.0429482 0)
(-0.0534339 -0.044132 0)
(-0.035787 -0.0406815 0)
(-0.0197364 -0.0325946 0)
(-0.00737107 -0.0205919 0)
(-0.00120375 -0.00649854 0)
(-0.00160763 0.0112164 0)
(-0.00931861 0.0318767 0)
(-0.0242108 0.0479551 0)
(-0.0430053 0.0580759 0)
(-0.0632609 0.0619413 0)
(-0.0831581 0.0598851 0)
(-0.10113 0.0526317 0)
(-0.115899 0.0411284 0)
(-0.126496 0.0264386 0)
(-0.132245 0.00969322 0)
(-0.132757 -0.00791721 0)
(-0.12793 -0.0251341 0)
(-0.117973 -0.0406279 0)
(-0.103439 -0.0530229 0)
(-0.0852734 -0.0609701 0)
(-0.0648389 -0.0632839 0)
(-0.0438877 -0.0591454 0)
(-0.0244789 -0.048347 0)
(-0.00925476 -0.0315592 0)
(-0.00153783 -0.0107291 0)
(-0.00194014 0.0164781 0)
(-0.0111217 0.0449768 0)
(-0.0286516 0.066237 0)
(-0.0504819 0.0790638 0)
(-0.073688 0.0834509 0)
(-0.0962077 0.0800786 0)
(-0.116357 0.0700282 0)
(-0.13282 0.0545877 0)
(-0.144637 0.0351334 0)
(-0.151147 0.013085 0)
(-0.151955 -0.0100875 0)
(-0.146921 -0.0328349 0)
(-0.136186 -0.053503 0)
(-0.120227 -0.0703408 0)
(-0.0999361 -0.0815696 0)
(-0.076704 -0.085537 0)
(-0.0524419 -0.0809675 0)
(-0.0295458 -0.0672801 0)
(-0.011284 -0.0449415 0)
(-0.00190014 -0.0159523 0)
(-0.00230009 0.022696 0)
(-0.0130253 0.0603036 0)
(-0.0332516 0.0873675 0)
(-0.058081 0.103001 0)
(-0.0840765 0.10767 0)
(-0.108956 0.102566 0)
(-0.130971 0.0892481 0)
(-0.148838 0.0694138 0)
(-0.16167 0.0447734 0)
(-0.168872 0.0170202 0)
(-0.170067 -0.0121346 0)
(-0.165075 -0.0408956 0)
(-0.153933 -0.0673178 0)
(-0.136973 -0.0892774 0)
(-0.114945 -0.104517 0)
(-0.0891775 -0.110801 0)
(-0.0616718 -0.106217 0)
(-0.035149 -0.0895827 0)
(-0.0135861 -0.0609517 0)
(-0.00232638 -0.0222784 0)
(-0.00271167 0.029948 0)
(-0.0151081 0.0779592 0)
(-0.038115 0.11136 0)
(-0.0658489 0.129754 0)
(-0.0943276 0.134322 0)
(-0.1211 0.126978 0)
(-0.144445 0.109906 0)
(-0.163215 0.0852846 0)
(-0.176689 0.0551688 0)
(-0.184408 0.0214873 0)
(-0.186059 -0.0138758 0)
(-0.181423 -0.048959 0)
(-0.170396 -0.0815968 0)
(-0.153082 -0.109328 0)
(-0.129972 -0.129386 0)
(-0.102187 -0.138833 0)
(-0.07169 -0.134891 0)
(-0.0414672 -0.115473 0)
(-0.0162882 -0.0798975 0)
(-0.00285472 -0.0298904 0)
(-0.00320765 0.0383605 0)
(-0.0174662 0.0980917 0)
(-0.043341 0.138193 0)
(-0.0737566 0.15905 0)
(-0.10416 0.162905 0)
(-0.132032 0.152677 0)
(-0.155826 0.131345 0)
(-0.174679 0.101643 0)
(-0.188168 0.0659593 0)
(-0.196068 0.0263899 0)
(-0.198186 -0.0151137 0)
(-0.194284 -0.0565476 0)
(-0.184082 -0.0956453 0)
(-0.167367 -0.129693 0)
(-0.144216 -0.155428 0)
(-0.115339 -0.169102 0)
(-0.082446 -0.166806 0)
(-0.0486362 -0.145127 0)
(-0.0195288 -0.102162 0)
(-0.00353357 -0.039048 0)
(-0.00384393 0.0481295 0)
(-0.0202461 0.120896 0)
(-0.0490463 0.167755 0)
(-0.081686 0.19037 0)
(-0.113053 0.192561 0)
(-0.140746 0.178619 0)
(-0.163621 0.152516 0)
(-0.181308 0.117595 0)
(-0.193846 0.0765366 0)
(-0.20136 0.0314947 0)
(-0.203856 -0.0156597 0)
(-0.201109 -0.0630525 0)
(-0.192648 -0.108494 0)
(-0.177857 -0.149175 0)
(-0.156223 -0.181419 0)
(-0.127779 -0.200611 0)
(-0.0936441 -0.201428 0)
(-0.056733 -0.178577 0)
(-0.0234798 -0.128175 0)
(-0.00443553 -0.0501051 0)
(-0.00472533 0.0595719 0)
(-0.0236945 0.146619 0)
(-0.0553825 0.199759 0)
(-0.0893756 0.222794 0)
(-0.120121 0.221896 0)
(-0.145674 0.203192 0)
(-0.165629 0.171843 0)
(-0.180369 0.131813 0)
(-0.19058 0.0859716 0)
(-0.196862 0.0363769 0)
(-0.1995 -0.0153713 0)
(-0.198334 -0.0677449 0)
(-0.192716 -0.11887 0)
(-0.181573 -0.166082 0)
(-0.163644 -0.205492 0)
(-0.137966 -0.231665 0)
(-0.104595 -0.237629 0)
(-0.0657333 -0.215528 0)
(-0.0283776 -0.158369 0)
(-0.00568207 -0.0635528 0)
(-0.00605152 0.0732289 0)
(-0.0282255 0.175565 0)
(-0.062508 0.233573 0)
(-0.0962558 0.25475 0)
(-0.123855 0.248735 0)
(-0.144396 0.22403 0)
(-0.158668 0.18711 0)
(-0.168104 0.142464 0)
(-0.174198 0.0929705 0)
(-0.178116 0.0403796 0)
(-0.180482 -0.0141991 0)
(-0.181263 -0.0698228 0)
(-0.179693 -0.125213 0)
(-0.174268 -0.178183 0)
(-0.162893 -0.224976 0)
(-0.143315 -0.259591 0)
(-0.113937 -0.273332 0)
(-0.0753927 -0.255069 0)
(-0.0345561 -0.193092 0)
(-0.00748626 -0.0801048 0)
(-0.008192 0.0900467 0)
(-0.0344824 0.208021 0)
(-0.0704114 0.267886 0)
(-0.101022 0.283609 0)
(-0.121572 0.269814 0)
(-0.133105 0.237844 0)
(-0.138159 0.195407 0)
(-0.139459 0.147235 0)
(-0.139363 0.0959106 0)
(-0.139591 0.0426201 0)
(-0.141105 -0.0122334 0)
(-0.144051 -0.0685085 0)
(-0.147665 -0.125796 0)
(-0.150167 -0.182772 0)
(-0.148718 -0.236327 0)
(-0.139642 -0.28045 0)
(-0.119094 -0.305028 0)
(-0.0849354 -0.295161 0)
(-0.0424403 -0.232378 0)
(-0.010216 -0.100837 0)
(-0.0117674 0.111636 0)
(-0.0432593 0.243962 0)
(-0.0782963 0.300036 0)
(-0.100626 0.305094 0)
(-0.108349 0.280463 0)
(-0.105727 0.240385 0)
(-0.0975248 0.193283 0)
(-0.0877656 0.143551 0)
(-0.0794952 0.093037 0)
(-0.0747794 0.0420954 0)
(-0.0747971 -0.00972915 0)
(-0.0798852 -0.0632123 0)
(-0.0894579 -0.118992 0)
(-0.101784 -0.176959 0)
(-0.113683 -0.235287 0)
(-0.120303 -0.288884 0)
(-0.115262 -0.327198 0)
(-0.0922656 -0.331796 0)
(-0.0523154 -0.275404 0)
(-0.0144303 -0.127347 0)
(-0.0175492 0.140659 0)
(-0.0547642 0.282146 0)
(-0.0827852 0.324719 0)
(-0.0880785 0.312475 0)
(-0.0751056 0.274458 0)
(-0.0525871 0.226772 0)
(-0.0274537 0.17729 0)
(-0.00450905 0.129137 0)
(0.0131048 0.0829137 0)
(0.0234463 0.0379472 0)
(0.0254048 -0.00707378 0)
(0.0185134 -0.0537594 0)
(0.00298528 -0.103753 0)
(-0.0199922 -0.158322 0)
(-0.047682 -0.217504 0)
(-0.0749819 -0.278362 0)
(-0.0935448 -0.331793 0)
(-0.0920627 -0.357684 0)
(-0.0632801 -0.319295 0)
(-0.0206335 -0.161974 0)
(-0.0254497 0.181711 0)
(-0.0657743 0.317772 0)
(-0.0733322 0.331363 0)
(-0.0480754 0.295402 0)
(-0.00557572 0.244213 0)
(0.041222 0.192382 0)
(0.0846574 0.145048 0)
(0.120542 0.102973 0)
(0.146708 0.0651385 0)
(0.162053 0.0298916 0)
(0.165947 -0.00467178 0)
(0.157941 -0.0406291 0)
(0.137737 -0.0802475 0)
(0.105444 -0.125919 0)
(0.0622656 -0.179728 0)
(0.0118083 -0.242022 0)
(-0.0378282 -0.307879 0)
(-0.0716785 -0.360144 0)
(-0.0700552 -0.356609 0)
(-0.0279122 -0.208375 0)
(-0.029649 0.239176 0)
(-0.0608411 0.335768 0)
(-0.0219419 0.300503 0)
(0.050543 0.240128 0)
(0.127574 0.18295 0)
(0.19701 0.13539 0)
(0.25434 0.0973998 0)
(0.298254 0.0668517 0)
(0.328829 0.0413557 0)
(0.346471 0.0187787 0)
(0.35138 -0.0027943 0)
(0.343307 -0.0252655 0)
(0.321472 -0.0507883 0)
(0.284646 -0.0820488 0)
(0.231575 -0.122447 0)
(0.162183 -0.17567 0)
(0.0799018 -0.243432 0)
(-0.00318922 -0.319136 0)
(-0.0546693 -0.368613 0)
(-0.0284593 -0.267618 0)
(0.00808308 0.281861 0)
(0.0197831 0.294972 0)
(0.139066 0.210973 0)
(0.26446 0.143477 0)
(0.364368 0.0971863 0)
(0.440365 0.0657778 0)
(0.496745 0.0442378 0)
(0.536876 0.0288862 0)
(0.563449 0.017199 0)
(0.578308 0.00748482 0)
(0.582383 -0.00149419 0)
(0.575698 -0.0108454 0)
(0.557311 -0.0218473 0)
(0.525137 -0.0363352 0)
(0.475778 -0.0572598 0)
(0.404538 -0.0893843 0)
(0.305177 -0.139741 0)
(0.173417 -0.216386 0)
(0.0411721 -0.311655 0)
(0.0184302 -0.299995 0)
(0.299604 0.146091 0)
(0.396272 0.127503 0)
(0.55742 0.0760895 0)
(0.674487 0.0437233 0)
(0.743889 0.0255721 0)
(0.787154 0.0152422 0)
(0.815486 0.00921239 0)
(0.833956 0.00550945 0)
(0.845386 0.0030272 0)
(0.851372 0.00114935 0)
(0.852667 -0.000499402 0)
(0.849383 -0.0022151 0)
(0.841 -0.0043386 0)
(0.826141 -0.00742412 0)
(0.802078 -0.0125323 0)
(0.763621 -0.0217729 0)
(0.699108 -0.0392829 0)
(0.583952 -0.0726601 0)
(0.415827 -0.127868 0)
(0.308819 -0.149468 0)
)
;

boundaryField
{
    movingWall
    {
        type            fixedValue;
        value           uniform (1 0 0);
    }
    fixedWalls
    {
        type            noSlip;
    }
    frontAndBack
    {
        type            empty;
    }
}


// ************************************************************************* //
