/*--------------------------------*- C++ -*----------------------------------*\
| =========                 |                                                 |
| \\      /  F ield         | OpenFOAM: The Open Source CFD Toolbox           |
|  \\    /   O peration     | Version:  2212                                  |
|   \\  /    A nd           | Website:  www.openfoam.com                      |
|    \\/     M anipulation  |                                                 |
\*---------------------------------------------------------------------------*/
FoamFile
{
    version     2.0;
    format      ascii;
    arch        "LSB;label=32;scalar=64";
    class       surfaceScalarField;
    location    "2.245";
    object      phi;
}
// * * * * * * * * * * * * * * * * * * * * * * * * * * * * * * * * * * * * * //

dimensions      [0 3 -1 0 0 0 0];

oriented        oriented;

internalField   nonuniform List<scalar> 
760
(
1.16333e-07
-1.16333e-07
2.08518e-07
-9.21845e-08
2.06001e-07
2.51703e-09
8.66606e-08
1.1934e-07
-1.85569e-07
2.7223e-07
-6.63316e-07
4.77747e-07
-1.37573e-06
7.12408e-07
-2.26161e-06
8.85885e-07
-3.15597e-06
8.94365e-07
-3.85019e-06
6.94211e-07
-4.17783e-06
3.27646e-07
-4.04285e-06
-1.34981e-07
-3.37586e-06
-6.66987e-07
-2.27808e-06
-1.09778e-06
-9.61079e-07
-1.31701e-06
2.28907e-07
-1.18999e-06
9.37e-07
-7.08093e-07
9.20156e-07
1.68436e-08
4.16621e-07
5.03536e-07
4.16621e-07
6.22827e-08
-1.78615e-07
-3.39143e-08
4.01307e-09
-3.80866e-07
3.49469e-07
-1.06562e-06
8.04092e-07
-2.13733e-06
1.34395e-06
-3.55047e-06
1.89089e-06
-5.11495e-06
2.27689e-06
-6.55904e-06
2.32997e-06
-7.65506e-06
1.99039e-06
-8.27405e-06
1.3132e-06
-8.35927e-06
4.12866e-07
-7.87662e-06
-6.17636e-07
-6.85539e-06
-1.68821e-06
-5.32676e-06
-2.6264e-06
-3.42794e-06
-3.21583e-06
-1.44765e-06
-3.17027e-06
1.13908e-07
-2.26965e-06
7.69603e-07
-6.38851e-07
4.813e-07
7.91839e-07
8.97921e-07
-1.64603e-07
-1.40129e-08
-6.4228e-07
4.81691e-07
-1.51613e-06
1.22331e-06
-2.83369e-06
2.12166e-06
-4.52602e-06
3.03628e-06
-6.36709e-06
3.73195e-06
-8.07436e-06
3.98416e-06
-9.45157e-06
3.70717e-06
-1.04177e-05
2.95652e-06
-1.09493e-05
1.84477e-06
-1.10028e-05
4.66406e-07
-1.06002e-05
-1.02026e-06
-9.73762e-06
-2.55077e-06
-8.36649e-06
-3.99753e-06
-6.46883e-06
-5.11349e-06
-4.14176e-06
-5.49735e-06
-1.7653e-06
-4.6461e-06
-8.71188e-08
-2.31703e-06
2.80599e-07
4.24121e-07
1.17852e-06
-4.56141e-07
4.42128e-07
-1.40034e-06
1.42589e-06
-2.76435e-06
2.58733e-06
-4.50395e-06
3.86126e-06
-6.43148e-06
4.96381e-06
-8.28058e-06
5.58106e-06
-9.83931e-06
5.54289e-06
-1.10247e-05
4.89258e-06
-1.18419e-05
3.77369e-06
-1.23145e-05
2.31737e-06
-1.24287e-05
5.80611e-07
-1.22253e-05
-1.22369e-06
-1.16836e-05
-3.0924e-06
-1.07063e-05
-4.97483e-06
-9.17107e-06
-6.64877e-06
-6.96115e-06
-7.70726e-06
-4.1334e-06
-7.47386e-06
-1.29093e-06
-5.1595e-06
1.14715e-07
-9.81524e-07
1.29324e-06
-7.48511e-07
1.19064e-06
-2.05882e-06
2.7362e-06
-3.71395e-06
4.24245e-06
-5.58159e-06
5.7289e-06
-7.43085e-06
6.81307e-06
-9.03922e-06
7.18942e-06
-1.0294e-05
6.79763e-06
-1.11877e-05
5.78635e-06
-1.17645e-05
4.35044e-06
-1.20873e-05
2.64024e-06
-1.2232e-05
7.25282e-07
-1.22091e-05
-1.24657e-06
-1.20082e-05
-3.29336e-06
-1.15503e-05
-5.43266e-06
-1.06569e-05
-7.5422e-06
-9.05228e-06
-9.31189e-06
-6.46641e-06
-1.00597e-05
-3.02561e-06
-8.60031e-06
-2.44507e-07
-3.76262e-06
1.04873e-06
-9.27424e-07
2.11806e-06
-2.41502e-06
4.2238e-06
-4.11969e-06
5.94712e-06
-5.86132e-06
7.47053e-06
-7.43251e-06
8.38426e-06
-8.68028e-06
8.43719e-06
-9.5604e-06
7.67775e-06
-1.01102e-05
6.33616e-06
-1.04054e-05
4.64562e-06
-1.05402e-05
2.775e-06
-1.06314e-05
8.16539e-07
-1.0697e-05
-1.18094e-06
-1.07404e-05
-3.25002e-06
-1.07359e-05
-5.43712e-06
-1.05308e-05
-7.74733e-06
-9.80033e-06
-1.00424e-05
-8.06859e-06
-1.17915e-05
-4.96174e-06
-1.17072e-05
-1.08349e-06
-7.64088e-06
-3.47568e-08
-9.43305e-07
3.06137e-06
-2.39923e-06
5.67973e-06
-3.95472e-06
7.50261e-06
-5.42193e-06
8.93773e-06
-6.64258e-06
9.60491e-06
-7.52476e-06
9.31937e-06
-8.06957e-06
8.22256e-06
-8.34109e-06
6.60768e-06
-8.43339e-06
4.73791e-06
-8.44557e-06
2.78718e-06
-8.46908e-06
8.40049e-07
-8.54067e-06
-1.10935e-06
-8.67982e-06
-3.11087e-06
-8.90099e-06
-5.21595e-06
-9.14388e-06
-7.50444e-06
-9.16652e-06
-1.00197e-05
-8.44853e-06
-1.25095e-05
-6.26505e-06
-1.38906e-05
-2.28372e-06
-1.16222e-05
-2.31848e-06
-7.95856e-07
3.85722e-06
-2.05245e-06
6.93632e-06
-3.33835e-06
8.78851e-06
-4.47792e-06
1.00773e-05
-5.36254e-06
1.04895e-05
-5.94836e-06
9.90519e-06
-6.264e-06
8.53819e-06
-6.38394e-06
6.72763e-06
-6.40034e-06
4.75431e-06
-6.39461e-06
2.78145e-06
-6.41511e-06
8.60548e-07
-6.48428e-06
-1.04017e-06
-6.62846e-06
-2.96669e-06
-6.88479e-06
-4.95961e-06
-7.2712e-06
-7.11803e-06
-7.68682e-06
-9.6041e-06
-7.70262e-06
-1.24937e-05
-6.50173e-06
-1.50915e-05
-3.40203e-06
-1.47219e-05
-5.72051e-06
-5.31476e-07
4.3887e-06
-1.48183e-06
7.88667e-06
-2.44501e-06
9.75169e-06
-3.25742e-06
1.08897e-05
-3.85363e-06
1.10857e-05
-4.22428e-06
1.02758e-05
-4.40985e-06
8.72376e-06
-4.47892e-06
6.7967e-06
-4.50489e-06
4.78028e-06
-4.53906e-06
2.81562e-06
-4.59864e-06
9.20134e-07
-4.68977e-06
-9.49046e-07
-4.82775e-06
-2.82872e-06
-5.04806e-06
-4.7393e-06
-5.41552e-06
-6.75057e-06
-5.94155e-06
-9.07808e-06
-6.38148e-06
-1.20537e-05
-5.97222e-06
-1.55008e-05
-3.79747e-06
-1.68967e-05
-9.51798e-06
-1.97607e-07
4.58631e-06
-7.881e-07
8.47716e-06
-1.41334e-06
1.03769e-05
-1.92085e-06
1.13972e-05
-2.27456e-06
1.14394e-05
-2.48783e-06
1.04891e-05
-2.60116e-06
8.83709e-06
-2.66521e-06
6.86075e-06
-2.72566e-06
4.84073e-06
-2.80918e-06
2.89914e-06
-2.91972e-06
1.03067e-06
-3.05441e-06
-8.14358e-07
-3.21535e-06
-2.66778e-06
-3.42103e-06
-4.53362e-06
-3.73625e-06
-6.43535e-06
-4.25296e-06
-8.56137e-06
-4.89779e-06
-1.14089e-05
-5.03074e-06
-1.53678e-05
-3.48932e-06
-1.84381e-05
-1.30073e-05
1.38552e-07
4.44775e-06
-6.34805e-08
8.6792e-06
-3.67218e-07
1.06807e-05
-5.99129e-07
1.16291e-05
-7.38374e-07
1.15787e-05
-8.11346e-07
1.05621e-05
-8.57207e-07
8.88295e-06
-9.11285e-07
6.91483e-06
-9.93006e-07
4.92246e-06
-1.10896e-06
3.0151e-06
-1.25922e-06
1.18093e-06
-1.44314e-06
-6.30436e-07
-1.66032e-06
-2.4506e-06
-1.90947e-06
-4.28447e-06
-2.23116e-06
-6.11366e-06
-2.73553e-06
-8.057e-06
-3.47854e-06
-1.06659e-05
-3.97969e-06
-1.48667e-05
-2.99302e-06
-1.94247e-05
-1.60003e-05
4.18249e-07
4.0295e-06
5.93903e-07
8.50354e-06
6.41108e-07
1.06335e-05
6.94827e-07
1.15754e-05
7.70133e-07
1.15034e-05
8.34673e-07
1.04975e-05
8.59254e-07
8.85837e-06
8.31144e-07
6.94294e-06
7.5051e-07
5.00309e-06
6.23127e-07
3.14248e-06
4.48281e-07
1.35577e-06
2.21159e-07
-4.03314e-07
-5.5792e-08
-2.17365e-06
-3.98524e-07
-3.94174e-06
-8.0999e-07
-5.70219e-06
-1.35193e-06
-7.51506e-06
-2.17822e-06
-9.83959e-06
-2.959e-06
-1.40859e-05
-2.46454e-06
-1.99192e-05
-1.84649e-05
6.21311e-07
3.40819e-06
1.14572e-06
7.97913e-06
1.51367e-06
1.02655e-05
1.85166e-06
1.12374e-05
2.1628e-06
1.11922e-05
2.39946e-06
1.02609e-05
2.53538e-06
8.72245e-06
2.57286e-06
6.90546e-06
2.52731e-06
5.04864e-06
2.41101e-06
3.25878e-06
2.22357e-06
1.54321e-06
1.9478e-06
-1.27544e-07
1.58791e-06
-1.81375e-06
1.14125e-06
-3.49508e-06
6.01126e-07
-5.16207e-06
-9.43781e-08
-6.81955e-06
-9.96973e-07
-8.937e-06
-1.98226e-06
-1.31006e-05
-1.95568e-06
-1.99458e-05
-2.04205e-05
7.04561e-07
2.70363e-06
1.51476e-06
7.16893e-06
2.19119e-06
9.58908e-06
2.81888e-06
1.06098e-05
3.39341e-06
1.06177e-05
3.85447e-06
9.79982e-06
4.16425e-06
8.41267e-06
4.32322e-06
6.74649e-06
4.35218e-06
5.01968e-06
4.2699e-06
3.34107e-06
4.07815e-06
1.73495e-06
3.76632e-06
1.84294e-07
3.32327e-06
-1.37071e-06
2.7477e-06
-2.91951e-06
2.03926e-06
-4.45363e-06
1.2113e-06
-5.9916e-06
1.56041e-07
-7.88173e-06
-1.07043e-06
-1.18742e-05
-1.48102e-06
-1.95352e-05
-2.19016e-05
6.41293e-07
2.06234e-06
1.60627e-06
6.20396e-06
2.53805e-06
8.65729e-06
3.46038e-06
9.68742e-06
4.33629e-06
9.74181e-06
5.0847e-06
9.0514e-06
5.64401e-06
7.85337e-06
5.99946e-06
6.39103e-06
6.16584e-06
4.85329e-06
6.16317e-06
3.34374e-06
5.99743e-06
1.90069e-06
5.66006e-06
5.21665e-07
5.13252e-06
-8.43172e-07
4.42073e-06
-2.20771e-06
3.52181e-06
-3.55472e-06
2.46882e-06
-4.93861e-06
1.20757e-06
-6.62048e-06
-2.70093e-07
-1.03965e-05
-9.99548e-07
-1.88057e-05
-2.29011e-05
4.46963e-07
1.61538e-06
1.41083e-06
5.24009e-06
2.57936e-06
7.48877e-06
3.81363e-06
8.45315e-06
5.02434e-06
8.5311e-06
6.10238e-06
7.97336e-06
6.96126e-06
6.99449e-06
7.56739e-06
5.78491e-06
7.92235e-06
4.49833e-06
8.04094e-06
3.22516e-06
7.93135e-06
2.01028e-06
7.5955e-06
8.5751e-07
6.99196e-06
-2.39632e-07
6.14499e-06
-1.36074e-06
5.04553e-06
-2.45526e-06
3.74559e-06
-3.63867e-06
2.29501e-06
-5.1699e-06
7.33227e-07
-8.8347e-06
-2.52921e-07
-1.78196e-05
-2.3154e-05
7.41907e-08
1.54119e-06
7.44267e-07
4.57002e-06
2.01093e-06
6.2221e-06
3.55258e-06
6.9115e-06
5.15191e-06
6.93177e-06
6.62516e-06
6.50011e-06
7.85222e-06
5.76744e-06
8.7833e-06
4.85382e-06
9.39932e-06
3.88231e-06
9.7077e-06
2.91678e-06
9.7096e-06
2.00839e-06
9.41397e-06
1.15314e-06
8.80565e-06
3.68686e-07
7.86676e-06
-4.21843e-07
6.62757e-06
-1.21608e-06
5.13639e-06
-2.14749e-06
3.55154e-06
-3.58505e-06
2.01405e-06
-7.29722e-06
5.62843e-07
-1.63684e-05
-2.25912e-05
-4.71304e-07
2.01249e-06
6.26117e-08
4.0361e-06
1.33783e-06
4.94688e-06
3.12917e-06
5.12017e-06
5.07174e-06
4.9892e-06
6.89437e-06
4.67748e-06
8.44761e-06
4.2142e-06
9.67311e-06
3.62832e-06
1.05363e-05
3.01911e-06
1.10475e-05
2.40555e-06
1.12069e-05
1.849e-06
1.10368e-05
1.32322e-06
1.05439e-05
8.61637e-07
9.73452e-06
3.8753e-07
8.62409e-06
-1.05649e-07
7.26036e-06
-7.83761e-07
5.84306e-06
-2.16775e-06
4.21733e-06
-5.67149e-06
1.95409e-06
-1.41051e-05
-2.06371e-05
-4.13283e-06
6.14532e-06
-3.65862e-06
3.5619e-06
-1.46258e-06
2.75084e-06
1.08559e-06
2.572e-06
3.59239e-06
2.4824e-06
5.94422e-06
2.32564e-06
8.03842e-06
2.12e-06
9.80974e-06
1.85701e-06
1.12278e-05
1.601e-06
1.23085e-05
1.32493e-06
1.30614e-05
1.09602e-06
1.35269e-05
8.57781e-07
1.37007e-05
6.87861e-07
1.36067e-05
4.81457e-07
1.32055e-05
2.95625e-07
1.25159e-05
-9.42536e-08
1.15732e-05
-1.225e-06
9.94973e-06
-4.04802e-06
5.56982e-06
-9.72523e-06
-1.50673e-05
6.14532e-06
9.70721e-06
1.24581e-05
1.503e-05
1.75124e-05
1.98381e-05
2.19581e-05
2.38151e-05
2.54161e-05
2.6741e-05
2.78371e-05
2.86948e-05
2.93827e-05
2.98642e-05
3.01598e-05
3.00655e-05
2.88405e-05
2.47925e-05
1.50673e-05
)
;

boundaryField
{
    movingWall
    {
        type            calculated;
        value           uniform 0;
    }
    fixedWalls
    {
        type            calculated;
        value           uniform 0;
    }
    frontAndBack
    {
        type            empty;
        value           nonuniform List<scalar> 0();
    }
}


// ************************************************************************* //
