/*--------------------------------*- C++ -*----------------------------------*\
| =========                 |                                                 |
| \\      /  F ield         | OpenFOAM: The Open Source CFD Toolbox           |
|  \\    /   O peration     | Version:  2212                                  |
|   \\  /    A nd           | Website:  www.openfoam.com                      |
|    \\/     M anipulation  |                                                 |
\*---------------------------------------------------------------------------*/
FoamFile
{
    version     2.0;
    format      ascii;
    arch        "LSB;label=32;scalar=64";
    class       surfaceScalarField;
    location    "3.72";
    object      phi;
}
// * * * * * * * * * * * * * * * * * * * * * * * * * * * * * * * * * * * * * //

dimensions      [0 3 -1 0 0 0 0];

oriented        oriented;

internalField   nonuniform List<scalar> 
760
(
1.5215e-07
-1.5215e-07
2.85244e-07
-1.33093e-07
2.99731e-07
-1.44872e-08
1.73813e-07
1.25918e-07
-1.27291e-07
3.01104e-07
-6.66019e-07
5.38728e-07
-1.47384e-06
8.07816e-07
-2.46624e-06
9.92405e-07
-3.4456e-06
9.79365e-07
-4.18193e-06
7.36323e-07
-4.50835e-06
3.26424e-07
-4.32812e-06
-1.8023e-07
-3.58282e-06
-7.45301e-07
-2.38427e-06
-1.19855e-06
-9.59621e-07
-1.42464e-06
3.19624e-07
-1.27925e-06
1.06413e-06
-7.44505e-07
1.01753e-06
4.66035e-08
4.55516e-07
5.6201e-07
4.55516e-07
1.18517e-07
-2.70667e-07
6.3162e-08
-7.77384e-08
-3.06701e-07
3.55375e-07
-1.07935e-06
8.9857e-07
-2.29949e-06
1.52124e-06
-3.88928e-06
2.12852e-06
-5.60416e-06
2.52269e-06
-7.13566e-06
2.5239e-06
-8.25995e-06
2.10365e-06
-8.86633e-06
1.3427e-06
-8.90705e-06
3.67149e-07
-8.35861e-06
-7.2867e-07
-7.25193e-06
-1.85199e-06
-5.6188e-06
-2.83168e-06
-3.60116e-06
-3.44228e-06
-1.50061e-06
-3.37979e-06
1.5887e-07
-2.40399e-06
8.42727e-07
-6.37254e-07
5.19099e-07
8.85637e-07
9.74615e-07
-1.31916e-07
-1.38752e-07
-6.36576e-07
4.26923e-07
-1.6164e-06
1.3352e-06
-3.11222e-06
2.39439e-06
-5.00272e-06
3.41174e-06
-6.99544e-06
4.12124e-06
-8.77909e-06
4.30634e-06
-1.01732e-05
3.91802e-06
-1.11248e-05
3.0552e-06
-1.16256e-05
1.84358e-06
-1.16261e-05
3.67628e-07
-1.11759e-05
-1.17889e-06
-1.02563e-05
-2.77156e-06
-8.81295e-06
-4.27505e-06
-6.82505e-06
-5.43018e-06
-4.38037e-06
-5.82447e-06
-1.87467e-06
-4.90969e-06
-9.25573e-08
-2.41937e-06
2.91785e-07
5.01295e-07
1.2664e-06
-4.9723e-07
3.58478e-07
-1.54564e-06
1.47533e-06
-3.0844e-06
2.87395e-06
-5.02e-06
4.32999e-06
-7.09873e-06
5.49047e-06
-9.01743e-06
6.03993e-06
-1.05743e-05
5.86322e-06
-1.17249e-05
5.0686e-06
-1.24964e-05
3.82673e-06
-1.29237e-05
2.27091e-06
-1.29934e-05
4.37299e-07
-1.2761e-05
-1.41136e-06
-1.21894e-05
-3.34308e-06
-1.11768e-05
-5.28766e-06
-9.59181e-06
-7.01518e-06
-7.30988e-06
-8.10641e-06
-4.36921e-06
-7.85036e-06
-1.37342e-06
-5.41516e-06
1.18057e-07
-9.90183e-07
1.38446e-06
-8.50771e-07
1.20925e-06
-2.33029e-06
2.95485e-06
-4.17566e-06
4.71932e-06
-6.19712e-06
6.35146e-06
-8.11856e-06
7.41191e-06
-9.71854e-06
7.63992e-06
-1.09185e-05
7.0632e-06
-1.17435e-05
5.89358e-06
-1.22551e-05
4.33837e-06
-1.25266e-05
2.54237e-06
-1.2648e-05
5.58693e-07
-1.26088e-05
-1.45053e-06
-1.23988e-05
-3.55316e-06
-1.19377e-05
-5.74867e-06
-1.10389e-05
-7.91403e-06
-9.41465e-06
-9.73066e-06
-6.7682e-06
-1.04968e-05
-3.19983e-06
-8.98354e-06
-2.62304e-07
-3.9277e-06
1.12215e-06
-1.06939e-06
2.27864e-06
-2.74231e-06
4.62777e-06
-4.61029e-06
6.5873e-06
-6.44587e-06
8.18704e-06
-8.02716e-06
8.99321e-06
-9.22214e-06
8.83489e-06
-1.00243e-05
7.86535e-06
-1.04975e-05
6.36683e-06
-1.07323e-05
4.57314e-06
-1.08295e-05
2.63959e-06
-1.0911e-05
6.40137e-07
-1.09675e-05
-1.39398e-06
-1.1013e-05
-3.5077e-06
-1.10167e-05
-5.74489e-06
-1.08232e-05
-8.1076e-06
-1.01038e-05
-1.04501e-05
-8.36618e-06
-1.22344e-05
-5.19987e-06
-1.21498e-05
-1.15064e-06
-7.97694e-06
-2.84864e-08
-1.09074e-06
3.36939e-06
-2.71392e-06
6.25094e-06
-4.38902e-06
8.2624e-06
-5.90632e-06
9.70434e-06
-7.10643e-06
1.01933e-05
-7.92492e-06
9.65337e-06
-8.39697e-06
8.3374e-06
-8.60866e-06
6.57852e-06
-8.66418e-06
4.62866e-06
-8.66267e-06
2.63809e-06
-8.68937e-06
6.66828e-07
-8.76515e-06
-1.3182e-06
-8.90929e-06
-3.36356e-06
-9.1321e-06
-5.52208e-06
-9.37378e-06
-7.86593e-06
-9.39911e-06
-1.04247e-05
-8.6874e-06
-1.29461e-05
-6.48642e-06
-1.43508e-05
-2.40192e-06
-1.20614e-05
-2.43041e-06
-9.17708e-07
4.28709e-06
-2.30789e-06
7.64113e-06
-3.67686e-06
9.63136e-06
-4.84156e-06
1.0869e-05
-5.70052e-06
1.10523e-05
-6.23465e-06
1.01875e-05
-6.499e-06
8.60175e-06
-6.58409e-06
6.6636e-06
-6.58749e-06
4.63207e-06
-6.58475e-06
2.63535e-06
-6.61444e-06
6.96517e-07
-6.69497e-06
-1.23767e-06
-6.84812e-06
-3.2104e-06
-7.10436e-06
-5.26585e-06
-7.47873e-06
-7.49156e-06
-7.8753e-06
-1.00282e-05
-7.87897e-06
-1.29424e-05
-6.67247e-06
-1.55573e-05
-3.55418e-06
-1.51797e-05
-5.98458e-06
-6.11885e-07
4.89898e-06
-1.65808e-06
8.68732e-06
-2.67773e-06
1.0651e-05
-3.50584e-06
1.16972e-05
-4.08593e-06
1.16324e-05
-4.42639e-06
1.0528e-05
-4.58473e-06
8.76009e-06
-4.63948e-06
6.71836e-06
-4.66449e-06
4.65707e-06
-4.70554e-06
2.67641e-06
-4.77409e-06
7.65061e-07
-4.87741e-06
-1.13435e-06
-5.02633e-06
-3.06149e-06
-5.25051e-06
-5.04166e-06
-5.60529e-06
-7.13678e-06
-6.10116e-06
-9.53229e-06
-6.51238e-06
-1.25312e-05
-6.09363e-06
-1.59761e-05
-3.89855e-06
-1.73748e-05
-9.88314e-06
-2.26449e-07
5.12543e-06
-8.76578e-07
9.33745e-06
-1.53931e-06
1.13137e-05
-2.06147e-06
1.22193e-05
-2.41433e-06
1.19852e-05
-2.6212e-06
1.07348e-05
-2.72983e-06
8.86872e-06
-2.79381e-06
6.78233e-06
-2.85901e-06
4.72228e-06
-2.94849e-06
2.76588e-06
-3.06515e-06
8.81726e-07
-3.20895e-06
-9.90552e-07
-3.38077e-06
-2.88968e-06
-3.59422e-06
-4.8282e-06
-3.90279e-06
-6.82821e-06
-4.38832e-06
-9.04677e-06
-4.99172e-06
-1.19278e-05
-5.10277e-06
-1.5865e-05
-3.54405e-06
-1.89335e-05
-1.34272e-05
1.61815e-07
4.96361e-06
-6.72077e-08
9.56647e-06
-3.95582e-07
1.16421e-05
-6.4276e-07
1.24665e-05
-7.9388e-07
1.21363e-05
-8.79658e-07
1.08206e-05
-9.39757e-07
8.92882e-06
-1.00643e-06
6.84901e-06
-1.09666e-06
4.81251e-06
-1.218e-06
2.88722e-06
-1.37231e-06
1.03604e-06
-1.56156e-06
-8.01302e-07
-1.78492e-06
-2.66631e-06
-2.0418e-06
-4.57132e-06
-2.36228e-06
-6.50774e-06
-2.84226e-06
-8.56679e-06
-3.54199e-06
-1.12281e-05
-4.01607e-06
-1.53909e-05
-3.01951e-06
-1.99301e-05
-1.64467e-05
4.92098e-07
4.47152e-06
6.8739e-07
9.37118e-06
7.29874e-07
1.15996e-05
7.65493e-07
1.24309e-05
8.11092e-07
1.20907e-05
8.4069e-07
1.0791e-05
8.33788e-07
8.93572e-06
7.81863e-07
6.90093e-06
6.87056e-07
4.90731e-06
5.51877e-07
3.0224e-06
3.724e-07
1.21551e-06
1.42557e-07
-5.7146e-07
-1.40299e-07
-2.38346e-06
-4.82629e-07
-4.22899e-06
-8.91351e-07
-6.09901e-06
-1.41545e-06
-8.04268e-06
-2.20244e-06
-1.04411e-05
-2.95737e-06
-1.4636e-05
-2.46289e-06
-2.04246e-05
-1.89096e-05
7.41339e-07
3.73018e-06
1.33018e-06
8.78233e-06
1.71776e-06
1.12121e-05
2.04377e-06
1.21049e-05
2.31484e-06
1.18197e-05
2.49938e-06
1.06065e-05
2.58797e-06
8.84713e-06
2.59136e-06
6.89755e-06
2.52472e-06
4.97395e-06
2.39699e-06
3.15013e-06
2.20243e-06
1.41007e-06
1.92725e-06
-2.96274e-07
1.57002e-06
-2.02623e-06
1.12555e-06
-3.78453e-06
5.88129e-07
-5.56159e-06
-9.71131e-08
-7.35744e-06
-9.71641e-07
-9.56656e-06
-1.9352e-06
-1.36724e-05
-1.93284e-06
-2.04269e-05
-2.08424e-05
8.52254e-07
2.87792e-06
1.77661e-06
7.85797e-06
2.50836e-06
1.04803e-05
3.14214e-06
1.14711e-05
3.6844e-06
1.12774e-05
4.09059e-06
1.02003e-05
4.34355e-06
8.59417e-06
4.45721e-06
6.78388e-06
4.45595e-06
4.97521e-06
4.35659e-06
3.24948e-06
4.15824e-06
1.60842e-06
3.8353e-06
2.66753e-08
3.39744e-06
-1.58837e-06
2.82435e-06
-3.21144e-06
2.11489e-06
-4.85213e-06
1.28449e-06
-6.52703e-06
2.39202e-07
-8.52128e-06
-9.8226e-07
-1.2451e-05
-1.43866e-06
-1.99705e-05
-2.22811e-05
7.88306e-07
2.08962e-06
1.91534e-06
6.73094e-06
2.94321e-06
9.45245e-06
3.90551e-06
1.05088e-05
4.77376e-06
1.04092e-05
5.48086e-06
9.4932e-06
5.98658e-06
8.08845e-06
6.29371e-06
6.47675e-06
6.42443e-06
4.84449e-06
6.39886e-06
3.27505e-06
6.21778e-06
1.78951e-06
5.87394e-06
3.70513e-07
5.34288e-06
-1.05731e-06
4.62596e-06
-2.49452e-06
3.71534e-06
-3.94151e-06
2.63894e-06
-5.45063e-06
1.35159e-06
-7.23393e-06
-1.75681e-07
-1.09237e-05
-9.28916e-07
-1.92173e-05
-2.321e-05
5.63828e-07
1.52579e-06
1.72236e-06
5.57241e-06
3.04108e-06
8.13372e-06
4.37539e-06
9.17447e-06
5.62802e-06
9.15653e-06
6.69982e-06
8.4214e-06
7.52451e-06
7.26376e-06
8.08904e-06
5.91221e-06
8.40661e-06
4.52692e-06
8.49563e-06
3.18603e-06
8.36364e-06
1.9215e-06
8.00906e-06
7.25092e-07
7.38895e-06
-4.37196e-07
6.51925e-06
-1.62483e-06
5.3869e-06
-2.80916e-06
4.03323e-06
-4.09697e-06
2.52318e-06
-5.72388e-06
9.20647e-07
-9.32118e-06
-1.61334e-07
-1.81353e-05
-2.33713e-05
1.44235e-07
1.38155e-06
1.01002e-06
4.70662e-06
2.46494e-06
6.67881e-06
4.16561e-06
7.4738e-06
5.86907e-06
7.45307e-06
7.38841e-06
6.90207e-06
8.62025e-06
6.03192e-06
9.53461e-06
4.99785e-06
1.01268e-05
3.93476e-06
1.04098e-05
2.90304e-06
1.03899e-05
1.94134e-06
1.00737e-05
1.04131e-06
9.42084e-06
2.15673e-07
8.44441e-06
-6.48395e-07
7.14062e-06
-1.50537e-06
5.5591e-06
-2.51545e-06
3.85706e-06
-4.02184e-06
2.20809e-06
-7.67221e-06
6.40525e-07
-1.65678e-05
-2.27308e-05
-5.11462e-07
1.89302e-06
1.89211e-07
4.00595e-06
1.71857e-06
5.14945e-06
3.75431e-06
5.43805e-06
5.88439e-06
5.32299e-06
7.82471e-06
4.96175e-06
9.4382e-06
4.41843e-06
1.06836e-05
3.75241e-06
1.15433e-05
3.07514e-06
1.20347e-05
2.41165e-06
1.21626e-05
1.81343e-06
1.19477e-05
1.25621e-06
1.141e-05
7.53317e-07
1.05268e-05
2.34834e-07
9.30186e-06
-2.80425e-07
7.80231e-06
-1.01591e-06
6.21426e-06
-2.43379e-06
4.42815e-06
-5.8861e-06
2.04373e-06
-1.41833e-05
-2.06871e-05
-4.17315e-06
6.06617e-06
-3.63939e-06
3.47219e-06
-1.26216e-06
2.77222e-06
1.51231e-06
2.66358e-06
4.22729e-06
2.60801e-06
6.73922e-06
2.44982e-06
8.93706e-06
2.22059e-06
1.07614e-05
1.92804e-06
1.21948e-05
1.64178e-06
1.32642e-05
1.34228e-06
1.39868e-05
1.09082e-06
1.44068e-05
8.36175e-07
1.45135e-05
6.46599e-07
1.43183e-05
4.30011e-07
1.38092e-05
2.28686e-07
1.3001e-05
-2.07678e-07
1.18865e-05
-1.31929e-06
1.00979e-05
-4.09746e-06
5.63194e-06
-9.7174e-06
-1.50551e-05
6.06617e-06
9.53836e-06
1.23106e-05
1.49742e-05
1.75822e-05
2.0032e-05
2.22526e-05
2.41806e-05
2.58224e-05
2.71647e-05
2.82555e-05
2.90917e-05
2.97383e-05
3.01683e-05
3.0397e-05
3.01893e-05
2.887e-05
2.47725e-05
1.50551e-05
)
;

boundaryField
{
    movingWall
    {
        type            calculated;
        value           uniform 0;
    }
    fixedWalls
    {
        type            calculated;
        value           uniform 0;
    }
    frontAndBack
    {
        type            empty;
        value           nonuniform List<scalar> 0();
    }
}


// ************************************************************************* //
