/*--------------------------------*- C++ -*----------------------------------*\
| =========                 |                                                 |
| \\      /  F ield         | OpenFOAM: The Open Source CFD Toolbox           |
|  \\    /   O peration     | Version:  2212                                  |
|   \\  /    A nd           | Website:  www.openfoam.com                      |
|    \\/     M anipulation  |                                                 |
\*---------------------------------------------------------------------------*/
FoamFile
{
    version     2.0;
    format      ascii;
    arch        "LSB;label=32;scalar=64";
    class       volScalarField;
    location    "2.57";
    object      p;
}
// * * * * * * * * * * * * * * * * * * * * * * * * * * * * * * * * * * * * * //

dimensions      [0 2 -2 0 0 0 0];

internalField   nonuniform List<scalar> 
400
(
-1.86909e-08
-0.000142497
-0.000492682
-0.000986195
-0.00159543
-0.00229082
-0.00292776
-0.00330916
-0.00326593
-0.00265088
-0.00132895
0.000721476
0.00322222
0.00541227
0.0064729
0.0060228
0.00430374
0.00258526
0.0015825
0.00149551
0.000118639
-4.36257e-05
-0.000332674
-0.000694676
-0.00114517
-0.00173421
-0.00246712
-0.00321061
-0.00367884
-0.00352629
-0.00249568
-0.000590889
0.00179376
0.003987
0.00517919
0.00493447
0.00348874
0.00186153
0.00110005
0.00115764
0.000493481
0.000255007
-5.39401e-05
-0.000497068
-0.00121027
-0.00231463
-0.00378158
-0.00536971
-0.00665549
-0.00715066
-0.00652227
-0.00482947
-0.00239949
0.000178887
0.00212118
0.00280259
0.00218783
0.00104827
0.000165941
0.000133545
0.00102133
0.000652966
0.000174643
-0.000677036
-0.0021596
-0.00437828
-0.00713921
-0.0099925
-0.0123761
-0.013756
-0.0138023
-0.012536
-0.0101559
-0.00707999
-0.00396624
-0.00153211
-0.00025249
-0.000120067
-0.000709444
-0.00134061
0.00132381
0.00079339
-5.44823e-05
-0.00170206
-0.00442042
-0.00816375
-0.0124802
-0.0166995
-0.0201899
-0.0224924
-0.0233474
-0.0226407
-0.0204723
-0.0170997
-0.012931
-0.00855003
-0.00473131
-0.00227878
-0.00162519
-0.00337697
0.000970112
0.000237175
-0.00115544
-0.00384838
-0.00801039
-0.0133234
-0.0190238
-0.0242857
-0.0284996
-0.0313397
-0.0326755
-0.0324146
-0.0306183
-0.0274158
-0.0229298
-0.017365
-0.0113019
-0.00609959
-0.00374978
-0.00581091
-0.000323278
-0.00127269
-0.0032741
-0.00701652
-0.0124809
-0.0190239
-0.0256259
-0.0314089
-0.03586
-0.0388034
-0.0402457
-0.0402138
-0.0387689
-0.0359709
-0.0317831
-0.0260721
-0.0189377
-0.0115794
-0.00707043
-0.00711459
-0.00255511
-0.00367398
-0.00620521
-0.010767
-0.017147
-0.0244218
-0.0314213
-0.0373041
-0.0416912
-0.0445342
-0.0459253
-0.0459699
-0.0447534
-0.042322
-0.0386147
-0.0333733
-0.0263106
-0.0179169
-0.01088
-0.00738708
-0.00539442
-0.00659076
-0.00947426
-0.0145277
-0.0213868
-0.0289496
-0.0359944
-0.0417592
-0.0459818
-0.048693
-0.0500231
-0.0500933
-0.0489909
-0.0467784
-0.043457
-0.03884
-0.0324683
-0.0241449
-0.0154877
-0.00921325
-0.0083396
-0.00951184
-0.0125464
-0.0177704
-0.0247349
-0.0322763
-0.0391912
-0.0447886
-0.0488746
-0.0515074
-0.0528149
-0.0528992
-0.0518377
-0.0497115
-0.0465987
-0.0424615
-0.0369306
-0.0294197
-0.0207729
-0.0131999
-0.0109221
-0.0119988
-0.0149904
-0.0201155
-0.0269013
-0.0342318
-0.0409622
-0.0464333
-0.0504592
-0.0530807
-0.0544002
-0.0544959
-0.0534315
-0.0512974
-0.0482379
-0.0443622
-0.0395508
-0.033092
-0.0254127
-0.017728
-0.0128717
-0.0137691
-0.0165603
-0.0213433
-0.0277158
-0.0346998
-0.041241
-0.0466674
-0.0507292
-0.0534131
-0.0547797
-0.0548857
-0.0537833
-0.0515697
-0.0484407
-0.044627
-0.0403169
-0.0347493
-0.0281776
-0.0208242
-0.0141466
-0.0147349
-0.0171131
-0.0213451
-0.0271182
-0.0336546
-0.0400094
-0.0454663
-0.0496598
-0.0524817
-0.0539357
-0.0540537
-0.052884
-0.0505409
-0.0472494
-0.0433075
-0.0392587
-0.0341814
-0.0284996
-0.021387
-0.0148176
-0.0149892
-0.0167088
-0.0201242
-0.0251022
-0.0310945
-0.0372554
-0.0427996
-0.0472158
-0.0502644
-0.0518695
-0.0520303
-0.050783
-0.0482605
-0.0447319
-0.0405799
-0.0364154
-0.0314272
-0.0266809
-0.0191104
-0.0149933
-0.014712
-0.0155288
-0.0178345
-0.0218036
-0.0271396
-0.0330811
-0.0387527
-0.0434741
-0.0468448
-0.0486826
-0.0489323
-0.0476364
-0.0449085
-0.0410801
-0.0365804
-0.0320466
-0.0269643
-0.0233564
-0.0138197
-0.0147933
-0.0141274
-0.0137622
-0.0146433
-0.0174125
-0.0219963
-0.0276939
-0.033521
-0.0386192
-0.0424094
-0.0445866
-0.0450243
-0.0437527
-0.0408536
-0.0366944
-0.0317188
-0.0266382
-0.0212804
-0.0181142
-0.00407597
-0.0143093
-0.0133702
-0.0115555
-0.0108507
-0.0123646
-0.0161987
-0.0216728
-0.0276809
-0.0332076
-0.0375012
-0.0401319
-0.0408768
-0.0397342
-0.0367615
-0.0322663
-0.0266247
-0.0205196
-0.0138992
-0.00799818
0.0149116
-0.0144251
-0.0126094
-0.00885451
-0.00657479
-0.00702238
-0.0103092
-0.015678
-0.0219116
-0.0279043
-0.0327615
-0.0359543
-0.0371438
-0.0362756
-0.0333541
-0.0285443
-0.0218782
-0.0135458
-0.00234344
0.0144068
0.0550874
-0.0118385
-0.0120487
-0.00637805
-0.00265638
-0.00245855
-0.00556852
-0.0110195
-0.0175258
-0.023965
-0.0293453
-0.0331093
-0.0348316
-0.0344167
-0.0316099
-0.0262753
-0.0176078
-0.00437615
0.0181957
0.0579051
0.127439
-0.0295494
-0.01105
-0.001517
0.00195038
0.00149422
-0.00198941
-0.00771001
-0.0145131
-0.0212874
-0.0270211
-0.0311364
-0.0331898
-0.0330475
-0.030302
-0.0243146
-0.0129145
0.00820418
0.0489675
0.120321
0.223856
)
;

boundaryField
{
    movingWall
    {
        type            zeroGradient;
    }
    fixedWalls
    {
        type            zeroGradient;
    }
    frontAndBack
    {
        type            empty;
    }
}


// ************************************************************************* //
