/*--------------------------------*- C++ -*----------------------------------*\
| =========                 |                                                 |
| \\      /  F ield         | OpenFOAM: The Open Source CFD Toolbox           |
|  \\    /   O peration     | Version:  2212                                  |
|   \\  /    A nd           | Website:  www.openfoam.com                      |
|    \\/     M anipulation  |                                                 |
\*---------------------------------------------------------------------------*/
FoamFile
{
    version     2.0;
    format      ascii;
    arch        "LSB;label=32;scalar=64";
    class       volScalarField;
    location    "0.54";
    object      p;
}
// * * * * * * * * * * * * * * * * * * * * * * * * * * * * * * * * * * * * * //

dimensions      [0 2 -2 0 0 0 0];

internalField   nonuniform List<scalar> 
400
(
-3.53999e-09
-2.30958e-05
2.14406e-05
0.000126823
0.000292093
0.000520326
0.000816725
0.00118789
0.00164059
0.00217981
0.00280572
0.00350944
0.0042677
0.00503575
0.00574813
0.00632573
0.00670141
0.00685705
0.00683922
0.00670714
2.64069e-05
3.17875e-06
5.48086e-05
0.000164381
0.000329498
0.00055439
0.00084473
0.00120711
0.00164831
0.00217376
0.00278486
0.00347462
0.00422217
0.00498748
0.00570144
0.00627921
0.0066466
0.00678539
0.00675157
0.00660838
-3.6988e-05
-6.73116e-05
-1.67299e-05
9.00046e-05
0.000248823
0.000464398
0.000743018
0.00109224
0.00152056
0.00203635
0.00264543
0.00334642
0.00412406
0.00493817
0.00571131
0.00633605
0.00671041
0.00680646
0.00670696
0.00651035
-0.000196658
-0.000233881
-0.000188559
-9.00649e-05
5.66115e-05
0.000256557
0.000516892
0.000846751
0.00125743
0.00176196
0.00237316
0.00309805
0.00392907
0.00483294
0.00571681
0.00643289
0.00682629
0.00684849
0.00663252
0.00634453
-0.000458948
-0.000501618
-0.000464576
-0.000379345
-0.000251103
-7.42862e-05
0.000159085
0.000459824
0.000842329
0.00132507
0.0019297
0.00267502
0.0035652
0.00459332
0.00564374
0.0065091
0.00693829
0.00684407
0.00644991
0.00600777
-0.000823995
-0.000871867
-0.00084649
-0.000780176
-0.000678089
-0.000534504
-0.000341102
-8.61218e-05
0.000247052
0.000681208
0.0012464
0.00197997
0.00291668
0.00404968
0.00531199
0.00641158
0.00691952
0.00666978
0.00603337
0.00536357
-0.0012862
-0.00133982
-0.00132992
-0.00128906
-0.00122268
-0.00112578
-0.000991122
-0.000808118
-0.000561056
-0.000227279
0.000224906
0.000841824
0.00168532
0.0028004
0.00425457
0.00567504
0.00640299
0.00612359
0.00530774
0.0041807
-0.00183588
-0.00189605
-0.00190551
-0.00189706
-0.0018772
-0.00184315
-0.00179119
-0.00171591
-0.00160878
-0.00145724
-0.0012479
-0.000964608
-0.0005401
0.000213671
0.00143138
0.00304476
0.00433779
0.00471416
0.00412704
0.00252688
-0.00245995
-0.00252729
-0.00255925
-0.00258931
-0.00262621
-0.00267144
-0.00272821
-0.0028022
-0.00290236
-0.00304435
-0.00326987
-0.00368016
-0.0043587
-0.0050428
-0.00497337
-0.00372328
-0.00141189
0.00100897
0.00209346
0.00139933
-0.00314239
-0.00321693
-0.00327251
-0.00334421
-0.00344446
-0.00358132
-0.00376863
-0.00402974
-0.00440382
-0.0049585
-0.00583676
-0.00736294
-0.00994063
-0.0132762
-0.0156091
-0.0155544
-0.0122871
-0.00690718
-0.00188907
0.0011708
-0.00386528
-0.00394599
-0.00402265
-0.00413343
-0.00429616
-0.00452731
-0.00485402
-0.00532205
-0.00601071
-0.00706017
-0.00874455
-0.0116375
-0.0164818
-0.0230109
-0.0288277
-0.0299693
-0.0261112
-0.018351
-0.00918243
-0.00117926
-0.00461081
-0.00469507
-0.00478459
-0.00492337
-0.00513648
-0.00544946
-0.00590257
-0.00656291
-0.0075474
-0.00906436
-0.0114919
-0.0155323
-0.0220605
-0.0306496
-0.0384719
-0.0408025
-0.0372813
-0.0290823
-0.0183297
-0.00722427
-0.00536473
-0.00544793
-0.00553457
-0.00567924
-0.00591698
-0.00628158
-0.0068224
-0.00761961
-0.00881043
-0.0106363
-0.0135096
-0.0180566
-0.0251255
-0.0341432
-0.0422921
-0.0449982
-0.0420613
-0.0346296
-0.024762
-0.0133012
-0.00612038
-0.00619306
-0.0062494
-0.00636536
-0.00659004
-0.00696245
-0.00753357
-0.00838437
-0.00965057
-0.0115649
-0.0145394
-0.0188244
-0.02551
-0.0337008
-0.0408668
-0.0433738
-0.0409909
-0.0345328
-0.0264458
-0.0157168
-0.00689078
-0.00693924
-0.00692606
-0.00696331
-0.00712556
-0.00745415
-0.00799239
-0.00880787
-0.01001
-0.0117907
-0.0144466
-0.0183277
-0.0237983
-0.0302786
-0.0358181
-0.0377296
-0.0357452
-0.0302609
-0.0247273
-0.0140763
-0.00770908
-0.00769213
-0.00752346
-0.00742193
-0.00748186
-0.00772936
-0.00819004
-0.00891271
-0.00997998
-0.0115365
-0.0137702
-0.0169028
-0.0210276
-0.0256768
-0.0295338
-0.0307064
-0.0288891
-0.0243444
-0.0211576
-0.00798295
-0.00860947
-0.00857001
-0.00816075
-0.0078186
-0.0077082
-0.00783087
-0.00817994
-0.00877869
-0.00968658
-0.0109987
-0.012834
-0.0152955
-0.0183727
-0.0216568
-0.0242653
-0.024747
-0.0228385
-0.0185317
-0.0149037
0.00646706
-0.0105524
-0.00962242
-0.0084119
-0.00780624
-0.00761036
-0.0076668
-0.00793821
-0.00843406
-0.00920868
-0.010328
-0.0118905
-0.0139334
-0.0164317
-0.0189823
-0.0209292
-0.0208873
-0.0181578
-0.0114891
0.000894603
0.0410594
-0.00967674
-0.0115124
-0.00966149
-0.00845567
-0.00789905
-0.00775078
-0.0078665
-0.00820924
-0.00884826
-0.0098116
-0.0112283
-0.013066
-0.0153493
-0.017596
-0.0191884
-0.0182551
-0.0125178
0.00387357
0.0395166
0.109482
-0.0273359
-0.0121545
-0.0069336
-0.00587707
-0.00576877
-0.00582822
-0.0060831
-0.00656122
-0.00736201
-0.00847269
-0.0100371
-0.0120075
-0.0143854
-0.0165823
-0.0174292
-0.013782
-0.000336573
0.0336381
0.101626
0.205993
)
;

boundaryField
{
    movingWall
    {
        type            zeroGradient;
    }
    fixedWalls
    {
        type            zeroGradient;
    }
    frontAndBack
    {
        type            empty;
    }
}


// ************************************************************************* //
