/*--------------------------------*- C++ -*----------------------------------*\
| =========                 |                                                 |
| \\      /  F ield         | OpenFOAM: The Open Source CFD Toolbox           |
|  \\    /   O peration     | Version:  2212                                  |
|   \\  /    A nd           | Website:  www.openfoam.com                      |
|    \\/     M anipulation  |                                                 |
\*---------------------------------------------------------------------------*/
FoamFile
{
    version     2.0;
    format      ascii;
    arch        "LSB;label=32;scalar=64";
    class       volScalarField;
    location    "3.055";
    object      p;
}
// * * * * * * * * * * * * * * * * * * * * * * * * * * * * * * * * * * * * * //

dimensions      [0 2 -2 0 0 0 0];

internalField   nonuniform List<scalar> 
400
(
1.52009e-06
-0.00582739
-0.0129657
-0.0184182
-0.020436
-0.0182424
-0.0117778
-0.00148758
0.0118336
0.0271455
0.0432409
0.0588196
0.0725753
0.0833052
0.0900496
0.0922638
0.0900226
0.0842406
0.0768773
0.0710638
0.00577867
-0.000220815
-0.0058069
-0.00954576
-0.0106024
-0.00843638
-0.00297373
0.00547031
0.0162991
0.028708
0.0417462
0.0543825
0.065583
0.0744066
0.0801169
0.0823124
0.0810739
0.0770515
0.0712707
0.0653144
0.0133326
0.0050309
-0.000998293
-0.00442628
-0.00527629
-0.00326749
0.00159861
0.00902375
0.0184982
0.0293455
0.0407618
0.0518661
0.0617651
0.069633
0.0748036
0.0768747
0.0758382
0.0720824
0.065802
0.0575319
0.0201368
0.00869309
0.00122281
-0.00267172
-0.00372544
-0.00188879
0.00272762
0.00978077
0.0187765
0.0290912
0.0399883
0.0506504
0.0602295
0.0679125
0.0729998
0.074998
0.0737623
0.0694525
0.0615993
0.0500988
0.0244993
0.00977022
0.000586691
-0.00399012
-0.00530553
-0.00351074
0.00117119
0.00833085
0.0174581
0.0279452
0.0390812
0.0500662
0.0600453
0.0681616
0.0736229
0.0757942
0.0743654
0.0692861
0.0595218
0.0445333
0.0251752
0.00714714
-0.00380511
-0.00906043
-0.0105155
-0.00850334
-0.00336026
0.00442585
0.0143096
0.0256752
0.0378099
0.0498995
0.0610444
0.0702995
0.0767311
0.0795133
0.0781353
0.0723298
0.0605355
0.0418861
0.0210907
-0.000265282
-0.0129376
-0.0187126
-0.0200331
-0.0174173
-0.0113218
-0.00232315
0.00898686
0.0219725
0.0359058
0.0499405
0.0631084
0.0743416
0.0825182
0.0865659
0.0857171
0.0794434
0.0656166
0.0430678
0.0111399
-0.0136212
-0.0278781
-0.0338574
-0.0346068
-0.0308609
-0.0232162
-0.0123486
0.00110139
0.0164803
0.0330489
0.0499299
0.0660796
0.0802861
0.091197
0.0974264
0.0978667
0.0916324
0.0758926
0.0491127
-0.00597029
-0.0342696
-0.0498732
-0.0555518
-0.0550934
-0.049518
-0.0395969
-0.0261167
-0.00976052
0.00881955
0.0288975
0.0495899
0.0697938
0.0881508
0.103044
0.112698
0.115547
0.110188
0.0928307
0.0614078
-0.0318605
-0.0638794
-0.0804201
-0.0850103
-0.0824233
-0.0740817
-0.0609843
-0.0440401
-0.0239549
-0.00134031
0.0231422
0.0486575
0.0740921
0.0979687
0.118392
0.133122
0.139985
0.136814
0.118437
0.0819303
-0.0686707
-0.104607
-0.121348
-0.123593
-0.117519
-0.10513
-0.0877216
-0.0663289
-0.0416404
-0.014159
0.0156022
0.0469498
0.0788524
0.10979
0.13762
0.159582
0.172723
0.173775
0.155517
0.113567
-0.119406
-0.15936
-0.174918
-0.17276
-0.161151
-0.142932
-0.119762
-0.0927803
-0.0625808
-0.029451
0.0063698
0.0444702
0.0840519
0.1237
0.161133
0.193083
0.215665
0.224074
0.208047
0.160629
-0.188631
-0.232245
-0.243942
-0.233951
-0.213697
-0.187157
-0.156375
-0.122504
-0.085901
-0.0464753
-0.00401759
0.0415357
0.0898391
0.139826
0.189316
0.234686
0.271071
0.291661
0.28174
0.229773
-0.283977
-0.329307
-0.331834
-0.308283
-0.274711
-0.236442
-0.195767
-0.153613
-0.109843
-0.0637479
-0.0144406
0.0388607
0.0965515
0.158274
0.222371
0.285285
0.341394
0.381572
0.384911
0.331831
-0.419321
-0.459673
-0.442353
-0.395794
-0.342131
-0.287742
-0.234618
-0.182932
-0.131611
-0.0789871
-0.0232162
0.0374731
0.104551
0.178835
0.259859
0.344968
0.428614
0.499698
0.529673
0.485389
-0.620534
-0.636746
-0.578679
-0.494195
-0.411242
-0.33566
-0.267782
-0.205979
-0.147538
-0.0893846
-0.0284277
0.0383466
0.113805
0.20047
0.299973
0.412023
0.533028
0.651773
0.73277
0.722394
-0.935925
-0.878516
-0.741743
-0.59795
-0.474394
-0.37266
-0.28887
-0.217764
-0.153955
-0.0924651
-0.0287185
0.0416944
0.123262
0.220717
0.338925
0.482153
0.651995
0.84134
1.01527
1.0975
-1.47642
-1.20663
-0.920504
-0.691389
-0.517306
-0.387545
-0.290062
-0.213338
-0.148125
-0.0872165
-0.0245787
0.0454564
0.128936
0.23307
0.367102
0.542677
0.771292
1.05932
1.40329
1.73014
-2.53965
-1.63055
-1.04444
-0.710959
-0.495751
-0.352094
-0.254531
-0.183584
-0.12617
-0.0735961
-0.0192701
0.0427858
0.119211
0.218781
0.354811
0.547983
0.826392
1.23658
1.91168
2.92419
-4.36667
-2.04463
-0.973543
-0.563181
-0.357847
-0.240147
-0.17012
-0.123784
-0.0874822
-0.0535113
-0.0166556
0.0276595
0.0846062
0.161728
0.27241
0.442098
0.718218
1.22571
2.41103
4.84853
)
;

boundaryField
{
    movingWall
    {
        type            zeroGradient;
    }
    fixedWalls
    {
        type            zeroGradient;
    }
    frontAndBack
    {
        type            empty;
    }
}


// ************************************************************************* //
