/*--------------------------------*- C++ -*----------------------------------*\
| =========                 |                                                 |
| \\      /  F ield         | OpenFOAM: The Open Source CFD Toolbox           |
|  \\    /   O peration     | Version:  2212                                  |
|   \\  /    A nd           | Website:  www.openfoam.com                      |
|    \\/     M anipulation  |                                                 |
\*---------------------------------------------------------------------------*/
FoamFile
{
    version     2.0;
    format      ascii;
    arch        "LSB;label=32;scalar=64";
    class       surfaceScalarField;
    location    "1.345";
    object      phi;
}
// * * * * * * * * * * * * * * * * * * * * * * * * * * * * * * * * * * * * * //

dimensions      [0 3 -1 0 0 0 0];

oriented        oriented;

internalField   nonuniform List<scalar> 
760
(
2.92282e-08
-2.92269e-08
6.89492e-09
2.23333e-08
-5.77155e-08
6.46107e-08
-1.69065e-07
1.1135e-07
-3.50926e-07
1.81861e-07
-6.31534e-07
2.80608e-07
-1.0288e-06
3.97266e-07
-1.53053e-06
5.01731e-07
-2.07379e-06
5.43264e-07
-2.54474e-06
4.70948e-07
-2.81375e-06
2.69011e-07
-2.79869e-06
-1.50684e-08
-2.40244e-06
-3.96248e-07
-1.69064e-06
-7.11801e-07
-8.12273e-07
-8.78363e-07
-5.56928e-09
-8.06704e-07
5.11786e-07
-5.17355e-07
5.5181e-07
-4.00244e-08
2.62665e-07
2.89145e-07
2.62666e-07
-7.0195e-08
4.09683e-08
-2.68043e-07
2.20182e-07
-5.69722e-07
3.66289e-07
-9.93712e-07
5.3534e-07
-1.58233e-06
7.70477e-07
-2.36052e-06
1.0588e-06
-3.29953e-06
1.33628e-06
-4.29662e-06
1.49882e-06
-5.18948e-06
1.43613e-06
-5.80913e-06
1.09059e-06
-6.04128e-06
5.01158e-07
-5.81628e-06
-2.4006e-07
-5.12837e-06
-1.08416e-06
-4.01423e-06
-1.82593e-06
-2.60204e-06
-2.29056e-06
-1.13088e-06
-2.27786e-06
3.15783e-09
-1.65139e-06
5.08568e-07
-5.45434e-07
3.32084e-07
4.65629e-07
5.94749e-07
-2.10449e-07
2.51417e-07
-6.3419e-07
6.43924e-07
-1.20337e-06
9.3547e-07
-1.94363e-06
1.2756e-06
-2.89547e-06
1.72231e-06
-4.0524e-06
2.21573e-06
-5.3279e-06
2.61178e-06
-6.56461e-06
2.73553e-06
-7.5884e-06
2.45992e-06
-8.26939e-06
1.77158e-06
-8.53159e-06
7.63359e-07
-8.32946e-06
-4.42191e-07
-7.67942e-06
-1.7342e-06
-6.56371e-06
-2.94164e-06
-5.00334e-06
-3.85093e-06
-3.12512e-06
-4.15608e-06
-1.26725e-06
-3.50926e-06
-2.31007e-08
-1.78959e-06
2.40622e-07
2.01907e-07
8.35371e-07
-3.55199e-07
6.06616e-07
-9.9544e-07
1.28416e-06
-1.80864e-06
1.74867e-06
-2.81938e-06
2.28634e-06
-4.05631e-06
2.95924e-06
-5.47937e-06
3.63878e-06
-6.96015e-06
4.09256e-06
-8.31896e-06
4.09434e-06
-9.40261e-06
3.54357e-06
-1.01321e-05
2.50112e-06
-1.04672e-05
1.09843e-06
-1.03787e-05
-5.30753e-07
-9.91606e-06
-2.1968e-06
-9.01341e-06
-3.84429e-06
-7.59052e-06
-5.27382e-06
-5.59615e-06
-6.15045e-06
-3.17479e-06
-5.93062e-06
-9.11513e-07
-4.05287e-06
1.30625e-07
-8.40232e-07
9.65995e-07
-4.73871e-07
1.08049e-06
-1.2871e-06
2.09739e-06
-2.28925e-06
2.75082e-06
-3.49742e-06
3.49451e-06
-4.91933e-06
4.38116e-06
-6.47518e-06
5.19462e-06
-7.99789e-06
5.61527e-06
-9.3037e-06
5.40015e-06
-1.02806e-05
4.52047e-06
-1.09143e-05
3.13481e-06
-1.12259e-05
1.41e-06
-1.12275e-05
-5.29115e-07
-1.09891e-05
-2.43524e-06
-1.04413e-05
-4.39208e-06
-9.4482e-06
-6.26689e-06
-7.80984e-06
-7.78881e-06
-5.3563e-06
-8.38415e-06
-2.3407e-06
-7.06847e-06
-1.48746e-07
-3.03218e-06
8.17249e-07
-5.42535e-07
1.62302e-06
-1.4588e-06
3.01366e-06
-2.56641e-06
3.85844e-06
-3.86046e-06
4.78856e-06
-5.31355e-06
5.83425e-06
-6.80526e-06
6.68633e-06
-8.15431e-06
6.96433e-06
-9.21111e-06
6.45694e-06
-9.92635e-06
5.23571e-06
-1.03393e-05
3.5478e-06
-1.05291e-05
1.59971e-06
-1.05814e-05
-4.76743e-07
-1.0511e-05
-2.50568e-06
-1.03219e-05
-4.58112e-06
-9.9013e-06
-6.68754e-06
-8.96653e-06
-8.72358e-06
-7.11911e-06
-1.02316e-05
-4.1328e-06
-1.00548e-05
-8.23966e-07
-6.34102e-06
-6.71702e-09
-5.42864e-07
2.16589e-06
-1.47084e-06
3.94164e-06
-2.57505e-06
4.96265e-06
-3.81536e-06
6.02887e-06
-5.1316e-06
7.15049e-06
-6.39035e-06
7.94508e-06
-7.43755e-06
8.01153e-06
-8.17901e-06
7.19841e-06
-8.61601e-06
5.6727e-06
-8.81532e-06
3.74711e-06
-8.87075e-06
1.65514e-06
-8.88464e-06
-4.62854e-07
-8.86697e-06
-2.52335e-06
-8.88835e-06
-4.55974e-06
-8.92387e-06
-6.65202e-06
-8.74044e-06
-8.90701e-06
-7.83551e-06
-1.11365e-05
-5.58404e-06
-1.23062e-05
-1.87613e-06
-1.00489e-05
-1.88285e-06
-4.68716e-07
2.6346e-06
-1.31066e-06
4.78358e-06
-2.30225e-06
5.95424e-06
-3.36726e-06
7.09388e-06
-4.43217e-06
8.2154e-06
-5.38619e-06
8.8991e-06
-6.12753e-06
8.75286e-06
-6.61523e-06
7.6861e-06
-6.87857e-06
5.93604e-06
-6.98342e-06
3.85196e-06
-6.99722e-06
1.66894e-06
-6.97358e-06
-4.86495e-07
-6.94413e-06
-2.55279e-06
-6.9912e-06
-4.51267e-06
-7.19208e-06
-6.45114e-06
-7.4715e-06
-8.62759e-06
-7.37047e-06
-1.12375e-05
-6.07109e-06
-1.36056e-05
-2.95411e-06
-1.31659e-05
-4.83695e-06
-3.31708e-07
2.96631e-06
-1.00169e-06
5.45356e-06
-1.79591e-06
6.74846e-06
-2.60872e-06
7.90669e-06
-3.37158e-06
8.97826e-06
-4.01849e-06
9.54601e-06
-4.50542e-06
9.23979e-06
-4.83244e-06
8.01312e-06
-5.03396e-06
6.13756e-06
-5.15201e-06
3.97002e-06
-5.21441e-06
1.73133e-06
-5.22114e-06
-4.79764e-07
-5.19559e-06
-2.57833e-06
-5.20479e-06
-4.50347e-06
-5.38231e-06
-6.27363e-06
-5.80275e-06
-8.20714e-06
-6.18991e-06
-1.08504e-05
-5.7135e-06
-1.4082e-05
-3.5179e-06
-1.53615e-05
-8.35485e-06
-1.53889e-07
3.1202e-06
-5.92275e-07
5.89194e-06
-1.13747e-06
7.29366e-06
-1.66152e-06
8.43074e-06
-2.10954e-06
9.42628e-06
-2.46675e-06
9.90322e-06
-2.74024e-06
9.51328e-06
-2.95418e-06
8.22706e-06
-3.13335e-06
6.31673e-06
-3.28989e-06
4.12656e-06
-3.41954e-06
1.86098e-06
-3.50103e-06
-3.98277e-07
-3.53373e-06
-2.54564e-06
-3.55578e-06
-4.48141e-06
-3.69446e-06
-6.13495e-06
-4.12834e-06
-7.77326e-06
-4.77812e-06
-1.02006e-05
-4.90054e-06
-1.39596e-05
-3.35652e-06
-1.69055e-05
-1.17114e-05
3.8817e-08
3.08138e-06
-1.43148e-07
6.07391e-06
-4.18552e-07
7.56906e-06
-6.46319e-07
8.6585e-06
-7.85034e-07
9.565e-06
-8.67519e-07
9.98571e-06
-9.36343e-07
9.5821e-06
-1.02364e-06
8.31435e-06
-1.14856e-06
6.44165e-06
-1.30568e-06
4.28369e-06
-1.47518e-06
2.03047e-06
-1.64526e-06
-2.28192e-07
-1.78947e-06
-2.40143e-06
-1.92464e-06
-4.34625e-06
-2.12397e-06
-5.93562e-06
-2.57773e-06
-7.3195e-06
-3.37314e-06
-9.4052e-06
-3.91748e-06
-1.34153e-05
-2.93066e-06
-1.78923e-05
-1.4642e-05
1.92841e-07
2.88854e-06
2.63128e-07
6.00362e-06
2.61934e-07
7.57025e-06
3.23962e-07
8.59648e-06
4.88685e-07
9.40027e-06
7.00716e-07
9.77367e-06
8.76147e-07
9.40667e-06
9.55273e-07
8.23523e-06
9.24927e-07
6.472e-06
8.08925e-07
4.39969e-06
6.33798e-07
2.2056e-06
3.93352e-07
1.2254e-08
1.33899e-07
-2.14197e-06
-1.83871e-07
-4.02848e-06
-5.91562e-07
-5.52792e-06
-1.1678e-06
-6.74326e-06
-2.09832e-06
-8.47468e-06
-2.95351e-06
-1.25601e-05
-2.46419e-06
-1.83817e-05
-1.71062e-05
2.96115e-07
2.59243e-06
5.78868e-07
5.72087e-06
8.14888e-07
7.33423e-06
1.13414e-06
8.27723e-06
1.58888e-06
8.94553e-06
2.1088e-06
9.25375e-06
2.56476e-06
8.95072e-06
2.8636e-06
7.93639e-06
2.98255e-06
6.35304e-06
2.94489e-06
4.43736e-06
2.77225e-06
2.37824e-06
2.47169e-06
3.1282e-07
2.04616e-06
-1.71644e-06
1.51336e-06
-3.49569e-06
8.83453e-07
-4.89802e-06
7.78575e-08
-5.93766e-06
-9.67331e-07
-7.4295e-06
-2.07124e-06
-1.14562e-05
-2.00477e-06
-1.84481e-05
-1.9111e-05
3.28204e-07
2.26422e-06
7.5875e-07
5.29032e-06
1.19531e-06
6.89768e-06
1.73311e-06
7.73942e-06
2.42568e-06
8.25297e-06
3.21007e-06
8.46936e-06
3.94297e-06
8.21782e-06
4.49771e-06
7.38165e-06
4.8188e-06
6.03195e-06
4.90795e-06
4.34821e-06
4.7807e-06
2.50548e-06
4.44457e-06
6.48953e-07
3.88687e-06
-1.15874e-06
3.14948e-06
-2.75829e-06
2.269e-06
-4.01754e-06
1.28021e-06
-4.94887e-06
4.01798e-08
-6.18947e-06
-1.26355e-06
-1.01524e-05
-1.57311e-06
-1.81386e-05
-2.06841e-05
2.75137e-07
1.98909e-06
7.46643e-07
4.81882e-06
1.31628e-06
6.32804e-06
2.02563e-06
7.03007e-06
2.90708e-06
7.37152e-06
3.90619e-06
7.47025e-06
4.88418e-06
7.23983e-06
5.69169e-06
6.57414e-06
6.23579e-06
5.48785e-06
6.48435e-06
4.09965e-06
6.43685e-06
2.55298e-06
6.10275e-06
9.8305e-07
5.45772e-06
-5.13714e-07
4.56265e-06
-1.86322e-06
3.47026e-06
-2.92514e-06
2.27001e-06
-3.74862e-06
9.14477e-07
-4.83393e-06
-5.1091e-07
-8.72706e-06
-1.14671e-06
-1.75028e-05
-2.18308e-05
1.48599e-07
1.84049e-06
5.63519e-07
4.40389e-06
1.21667e-06
5.67489e-06
2.05044e-06
6.1963e-06
3.06419e-06
6.35777e-06
4.20549e-06
6.32895e-06
5.35354e-06
6.09178e-06
6.35896e-06
5.56872e-06
7.10249e-06
4.74432e-06
7.51853e-06
3.68362e-06
7.5784e-06
2.49311e-06
7.28421e-06
1.27724e-06
6.63073e-06
1.39767e-07
5.65203e-06
-8.84518e-07
4.42965e-06
-1.70276e-06
3.09404e-06
-2.41302e-06
1.69836e-06
-3.43825e-06
1.74377e-07
-7.20308e-06
-5.69972e-07
-1.67584e-05
-2.24008e-05
-1.40326e-07
1.98081e-06
4.65677e-08
4.217e-06
6.93517e-07
5.02794e-06
1.67454e-06
5.21527e-06
2.84847e-06
5.18384e-06
4.12557e-06
5.05185e-06
5.40295e-06
4.8144e-06
6.55514e-06
4.41653e-06
7.45644e-06
3.84303e-06
8.0252e-06
3.11485e-06
8.2075e-06
2.31082e-06
7.99435e-06
1.49038e-06
7.39641e-06
7.3771e-07
6.44293e-06
6.89591e-08
5.2221e-06
-4.81931e-07
3.90017e-06
-1.09108e-06
2.63371e-06
-2.1718e-06
1.42128e-06
-5.99064e-06
2.95811e-07
-1.5633e-05
-2.2105e-05
-3.84144e-07
2.36496e-06
-3.47092e-07
4.17995e-06
2.5716e-07
4.42369e-06
1.26112e-06
4.21131e-06
2.49354e-06
3.95142e-06
3.82375e-06
3.72164e-06
5.14574e-06
3.49241e-06
6.36184e-06
3.20043e-06
7.35435e-06
2.85051e-06
8.04911e-06
2.42008e-06
8.38628e-06
1.97365e-06
8.36491e-06
1.51176e-06
7.99037e-06
1.11224e-06
7.31723e-06
7.42106e-07
6.42391e-06
4.11391e-07
5.48032e-06
-1.475e-07
4.60416e-06
-1.29564e-06
3.52738e-06
-4.91386e-06
1.67485e-06
-1.37804e-05
-2.04301e-05
-3.99224e-06
6.35719e-06
-3.6303e-06
3.81801e-06
-1.93799e-06
2.73137e-06
-8.87003e-08
2.36202e-06
1.71751e-06
2.1452e-06
3.48225e-06
1.9569e-06
5.17761e-06
1.79705e-06
6.75507e-06
1.62296e-06
8.14324e-06
1.46235e-06
9.29816e-06
1.26516e-06
1.01775e-05
1.09435e-06
1.07886e-05
9.00627e-07
1.11265e-05
7.74354e-07
1.12501e-05
6.18466e-07
1.1175e-05
4.8649e-07
1.08703e-05
1.57255e-07
1.0441e-05
-8.66328e-07
9.38719e-06
-3.86009e-06
5.34483e-06
-9.73808e-06
-1.50853e-05
6.35719e-06
1.01752e-05
1.29066e-05
1.52686e-05
1.74138e-05
1.93707e-05
2.11678e-05
2.27907e-05
2.42531e-05
2.55182e-05
2.66126e-05
2.75132e-05
2.82876e-05
2.8906e-05
2.93925e-05
2.95498e-05
2.86834e-05
2.48234e-05
1.50853e-05
)
;

boundaryField
{
    movingWall
    {
        type            calculated;
        value           uniform 0;
    }
    fixedWalls
    {
        type            calculated;
        value           uniform 0;
    }
    frontAndBack
    {
        type            empty;
        value           nonuniform List<scalar> 0();
    }
}


// ************************************************************************* //
