/*--------------------------------*- C++ -*----------------------------------*\
| =========                 |                                                 |
| \\      /  F ield         | OpenFOAM: The Open Source CFD Toolbox           |
|  \\    /   O peration     | Version:  2212                                  |
|   \\  /    A nd           | Website:  www.openfoam.com                      |
|    \\/     M anipulation  |                                                 |
\*---------------------------------------------------------------------------*/
FoamFile
{
    version     2.0;
    format      ascii;
    arch        "LSB;label=32;scalar=64";
    class       surfaceScalarField;
    location    "4.155";
    object      phi;
}
// * * * * * * * * * * * * * * * * * * * * * * * * * * * * * * * * * * * * * //

dimensions      [0 3 -1 0 0 0 0];

oriented        oriented;

internalField   nonuniform List<scalar> 
760
(
1.5381e-07
-1.53828e-07
2.88744e-07
-1.34934e-07
3.03974e-07
-1.52301e-08
1.77833e-07
1.26141e-07
-1.24559e-07
3.02392e-07
-6.66277e-07
5.41719e-07
-1.47902e-06
8.12744e-07
-2.47704e-06
9.98023e-07
-3.46077e-06
9.83724e-07
-4.19879e-06
7.38023e-07
-4.52423e-06
3.25441e-07
-4.34004e-06
-1.8419e-07
-3.58889e-06
-7.5115e-07
-2.3837e-06
-1.20519e-06
-9.53017e-07
-1.43069e-06
3.30069e-07
-1.28309e-06
1.07416e-06
-7.44094e-07
1.02376e-06
5.04054e-08
4.57743e-07
5.66014e-07
4.57743e-07
1.21179e-07
-2.75006e-07
6.77133e-08
-8.14685e-08
-3.03125e-07
3.55608e-07
-1.07989e-06
9.02903e-07
-2.30727e-06
1.52978e-06
-3.90615e-06
2.1406e-06
-5.62929e-06
2.53588e-06
-7.16614e-06
2.53488e-06
-8.29264e-06
2.11022e-06
-8.89855e-06
1.34394e-06
-8.93649e-06
3.6338e-07
-8.38343e-06
-7.37252e-07
-7.27044e-06
-1.86415e-06
-5.62992e-06
-2.84571e-06
-3.60472e-06
-3.45589e-06
-1.4978e-06
-3.39e-06
1.65919e-07
-2.40781e-06
8.48847e-07
-6.32522e-07
5.21653e-07
8.93209e-07
9.79396e-07
-1.30349e-07
-1.44657e-07
-6.36045e-07
4.24228e-07
-1.62085e-06
1.34041e-06
-3.12544e-06
2.40749e-06
-5.02639e-06
3.43073e-06
-7.02828e-06
4.14249e-06
-8.81822e-06
4.32582e-06
-1.0216e-05
3.93268e-06
-1.11693e-05
3.06349e-06
-1.16702e-05
1.84481e-06
-1.1668e-05
3.61172e-07
-1.12143e-05
-1.19088e-06
-1.02898e-05
-2.78873e-06
-8.83981e-06
-4.29565e-06
-6.84411e-06
-5.45159e-06
-4.39088e-06
-5.84323e-06
-1.87746e-06
-4.92123e-06
-9.07432e-08
-2.41924e-06
2.92755e-07
5.09711e-07
1.27215e-06
-4.98926e-07
3.54269e-07
-1.55228e-06
1.47758e-06
-3.09973e-06
2.88786e-06
-5.0459e-06
4.35367e-06
-7.13437e-06
5.5192e-06
-9.06019e-06
6.06831e-06
-1.06216e-05
5.88718e-06
-1.17749e-05
5.086e-06
-1.25478e-05
3.83641e-06
-1.29752e-05
2.27218e-06
-1.30428e-05
4.28817e-07
-1.28077e-05
-1.42603e-06
-1.22321e-05
-3.36432e-06
-1.1214e-05
-5.31367e-06
-9.62234e-06
-7.04329e-06
-7.33227e-06
-8.13331e-06
-4.38196e-06
-7.87154e-06
-1.37611e-06
-5.42509e-06
1.18845e-07
-9.8524e-07
1.391e-06
-8.55648e-07
1.20992e-06
-2.34363e-06
2.96556e-06
-4.19928e-06
4.74352e-06
-6.23064e-06
6.38502e-06
-8.15966e-06
7.44822e-06
-9.7646e-06
7.67326e-06
-1.09677e-05
7.09031e-06
-1.17947e-05
5.91297e-06
-1.23073e-05
4.34902e-06
-1.25787e-05
2.54355e-06
-1.26994e-05
5.49525e-07
-1.26578e-05
-1.46763e-06
-1.24442e-05
-3.57795e-06
-1.19788e-05
-5.77903e-06
-1.10749e-05
-7.9472e-06
-9.44454e-06
-9.76366e-06
-6.78968e-06
-1.05264e-05
-3.20967e-06
-9.00511e-06
-2.62228e-07
-3.93268e-06
1.12877e-06
-1.07669e-06
2.2866e-06
-2.75947e-06
4.64834e-06
-4.63733e-06
6.62138e-06
-6.48105e-06
8.22874e-06
-8.06793e-06
9.0351e-06
-9.26647e-06
8.8718e-06
-1.00712e-05
7.89501e-06
-1.05464e-05
6.38821e-06
-1.07827e-05
4.58528e-06
-1.08806e-05
2.6415e-06
-1.09622e-05
6.31068e-07
-1.10164e-05
-1.41335e-06
-1.10582e-05
-3.53615e-06
-1.10575e-05
-5.77976e-06
-1.08592e-05
-8.14547e-06
-1.01353e-05
-1.04876e-05
-8.39234e-06
-1.22693e-05
-5.21751e-06
-1.21799e-05
-1.15416e-06
-7.99602e-06
-2.53966e-08
-1.09882e-06
3.38542e-06
-2.73161e-06
6.28113e-06
-4.4151e-06
8.30488e-06
-5.93882e-06
9.75245e-06
-7.14323e-06
1.02395e-05
-7.96476e-06
9.69333e-06
-8.43959e-06
8.36983e-06
-8.65414e-06
6.60276e-06
-8.7125e-06
4.64363e-06
-8.71317e-06
2.64216e-06
-8.74056e-06
6.58466e-07
-8.81467e-06
-1.33925e-06
-8.95509e-06
-3.39573e-06
-9.17247e-06
-5.56238e-06
-9.40813e-06
-7.9098e-06
-9.4282e-06
-1.04675e-05
-8.71255e-06
-1.2985e-05
-6.50649e-06
-1.4386e-05
-2.41079e-06
-1.20917e-05
-2.43619e-06
-9.24863e-07
4.31029e-06
-2.32328e-06
7.67955e-06
-3.6989e-06
9.6805e-06
-4.86855e-06
1.09221e-05
-5.73102e-06
1.1102e-05
-6.26813e-06
1.02304e-05
-6.5357e-06
8.6374e-06
-6.62444e-06
6.69151e-06
-6.63149e-06
4.65069e-06
-6.63164e-06
2.64231e-06
-6.66265e-06
6.89471e-07
-6.7425e-06
-1.25939e-06
-6.89276e-06
-3.24548e-06
-7.14378e-06
-5.31135e-06
-7.5112e-06
-7.54239e-06
-7.9008e-06
-1.00779e-05
-7.89947e-06
-1.29863e-05
-6.68971e-06
-1.55957e-05
-3.56726e-06
-1.52142e-05
-6.00345e-06
-6.16975e-07
4.92726e-06
-1.6694e-06
8.73197e-06
-2.69391e-06
1.0705e-05
-3.52565e-06
1.17538e-05
-4.10855e-06
1.16849e-05
-4.45168e-06
1.05736e-05
-4.61305e-06
8.79877e-06
-4.67115e-06
6.74961e-06
-4.69936e-06
4.6789e-06
-4.74286e-06
2.6858e-06
-4.81279e-06
7.59407e-07
-4.91635e-06
-1.15583e-06
-5.06403e-06
-3.0978e-06
-5.28498e-06
-5.09039e-06
-5.63411e-06
-7.19327e-06
-6.12271e-06
-9.58932e-06
-6.52794e-06
-1.25811e-05
-6.10629e-06
-1.60174e-05
-3.90827e-06
-1.74122e-05
-9.91172e-06
-2.28584e-07
5.15585e-06
-8.82629e-07
9.38602e-06
-1.5484e-06
1.13708e-05
-2.07284e-06
1.22783e-05
-2.4276e-06
1.20396e-05
-2.63638e-06
1.07824e-05
-2.7471e-06
8.90949e-06
-2.81324e-06
6.81575e-06
-2.88033e-06
4.74598e-06
-2.9712e-06
2.77668e-06
-3.08894e-06
8.77142e-07
-3.23362e-06
-1.01115e-06
-3.40596e-06
-2.92547e-06
-3.61893e-06
-4.87742e-06
-3.92466e-06
-6.88754e-06
-4.40461e-06
-9.10937e-06
-5.00201e-06
-1.19837e-05
-5.10994e-06
-1.59095e-05
-3.54922e-06
-1.89729e-05
-1.34609e-05
1.62957e-07
4.99289e-06
-6.75551e-08
9.61653e-06
-3.97304e-07
1.17005e-05
-6.45376e-07
1.25264e-05
-7.97216e-07
1.21915e-05
-8.83706e-07
1.08689e-05
-9.44448e-07
8.97023e-06
-1.01163e-06
6.88293e-06
-1.10218e-06
4.83653e-06
-1.22384e-06
2.89834e-06
-1.37886e-06
1.03216e-06
-1.56945e-06
-8.20551e-07
-1.79477e-06
-2.70015e-06
-2.05348e-06
-4.61871e-06
-2.37454e-06
-6.56649e-06
-2.85191e-06
-8.632e-06
-3.5471e-06
-1.12885e-05
-4.01867e-06
-1.54379e-05
-3.02144e-06
-1.99702e-05
-1.64824e-05
4.96373e-07
4.49651e-06
6.93176e-07
9.41973e-06
7.36405e-07
1.16573e-05
7.72596e-07
1.24902e-05
8.18593e-07
1.21455e-05
8.486e-07
1.08388e-05
8.42366e-07
8.97646e-06
7.91414e-07
6.93388e-06
6.97452e-07
4.93049e-06
5.6264e-07
3.03315e-06
3.82571e-07
1.21223e-06
1.51003e-07
-5.88983e-07
-1.34246e-07
-2.4149e-06
-4.80026e-07
-4.27293e-06
-8.91883e-07
-6.15463e-06
-1.41675e-06
-8.10713e-06
-2.20172e-06
-1.05036e-05
-2.95532e-06
-1.46843e-05
-2.46175e-06
-2.04637e-05
-1.89441e-05
7.48491e-07
3.74802e-06
1.3417e-06
8.82652e-06
1.73198e-06
1.1267e-05
2.06e-06
1.21621e-05
2.33256e-06
1.18729e-05
2.51855e-06
1.06529e-05
2.60894e-06
8.88608e-06
2.61434e-06
6.92848e-06
2.54951e-06
4.99533e-06
2.42261e-06
3.16005e-06
2.22739e-06
1.40746e-06
1.94996e-06
-3.11559e-07
1.58946e-06
-2.0544e-06
1.14087e-06
-3.82434e-06
5.98816e-07
-5.61257e-06
-9.02127e-08
-7.4181e-06
-9.64873e-07
-9.62889e-06
-1.92848e-06
-1.37207e-05
-1.92963e-06
-2.04626e-05
-2.08738e-05
8.61057e-07
2.88697e-06
1.79264e-06
7.89493e-06
2.52925e-06
1.05304e-05
3.16663e-06
1.15248e-05
3.71172e-06
1.13278e-05
4.12045e-06
1.02441e-05
4.37604e-06
8.63049e-06
4.49232e-06
6.81219e-06
4.49316e-06
4.99449e-06
4.39488e-06
3.25834e-06
4.19636e-06
1.60598e-06
3.86991e-06
1.48894e-08
3.42883e-06
-1.61332e-06
2.85104e-06
-3.24655e-06
2.13603e-06
-4.89756e-06
1.3003e-06
-6.58237e-06
2.51079e-07
-8.57967e-06
-9.72327e-07
-1.24973e-05
-1.43391e-06
-2.0001e-05
-2.23077e-05
7.96946e-07
2.09002e-06
1.93376e-06
6.75812e-06
2.96868e-06
9.49548e-06
3.93629e-06
1.05572e-05
4.8088e-06
1.04553e-05
5.51954e-06
9.53338e-06
6.02861e-06
8.12142e-06
6.33878e-06
6.50202e-06
6.47179e-06
4.86148e-06
6.44715e-06
3.28297e-06
6.26502e-06
1.78811e-06
5.91988e-06
3.60033e-07
5.38465e-06
-1.0781e-06
4.6626e-06
-2.52449e-06
3.74571e-06
-3.98067e-06
2.66198e-06
-5.49863e-06
1.36792e-06
-7.28562e-06
-1.66706e-07
-1.09626e-05
-9.22228e-07
-1.92455e-05
-2.32299e-05
5.70425e-07
1.5196e-06
1.7401e-06
5.58845e-06
3.06826e-06
8.16732e-06
4.41054e-06
9.21488e-06
5.66963e-06
9.19623e-06
6.74663e-06
8.45638e-06
7.57558e-06
7.29248e-06
8.14357e-06
5.93403e-06
8.46356e-06
4.54149e-06
8.55355e-06
3.19298e-06
8.42099e-06
1.92067e-06
8.06418e-06
7.16838e-07
7.43999e-06
-4.53909e-07
6.56477e-06
-1.64927e-06
5.42542e-06
-2.84132e-06
4.06279e-06
-4.13601e-06
2.54447e-06
-5.76729e-06
9.36796e-07
-9.35497e-06
-1.53783e-07
-1.81549e-05
-2.33837e-05
1.48035e-07
1.37156e-06
1.02446e-06
4.71203e-06
2.49018e-06
6.7016e-06
4.2011e-06
7.50396e-06
5.91332e-06
7.484e-06
7.43965e-06
6.93006e-06
8.67707e-06
6.05505e-06
9.59575e-06
5.01535e-06
1.0191e-05
3.94624e-06
1.04755e-05
2.9085e-06
1.04556e-05
1.94054e-06
1.01378e-05
1.03469e-06
9.47992e-06
2.03938e-07
8.49813e-06
-6.67482e-07
7.18636e-06
-1.52955e-06
5.59463e-06
-2.54428e-06
3.88104e-06
-4.0537e-06
2.22256e-06
-7.69649e-06
6.4615e-07
-1.65785e-05
-2.27375e-05
-5.14277e-07
1.88584e-06
1.95123e-07
4.00263e-06
1.73769e-06
5.15903e-06
3.78721e-06
5.45444e-06
5.92956e-06
5.34165e-06
7.87971e-06
4.97991e-06
9.50095e-06
4.43381e-06
1.07521e-05
3.76421e-06
1.16157e-05
3.08267e-06
1.21089e-05
2.41525e-06
1.22364e-05
1.813e-06
1.20188e-05
1.25232e-06
1.14774e-05
7.45321e-07
1.05873e-05
2.22674e-07
9.35221e-06
-2.94485e-07
7.84105e-06
-1.03313e-06
6.23948e-06
-2.45212e-06
4.44182e-06
-5.89883e-06
2.04943e-06
-1.41861e-05
-2.06881e-05
-4.17604e-06
6.06188e-06
-3.64024e-06
3.46683e-06
-1.25384e-06
2.77262e-06
1.53272e-06
2.66789e-06
4.25978e-06
2.61459e-06
6.78254e-06
2.45714e-06
8.98907e-06
2.22728e-06
1.08198e-05
1.93347e-06
1.2257e-05
1.64545e-06
1.3328e-05
1.34428e-06
1.405e-05
1.09096e-06
1.44676e-05
8.34735e-07
1.45696e-05
6.4339e-07
1.43665e-05
4.25771e-07
1.38486e-05
2.23417e-07
1.30309e-05
-2.15443e-07
1.19042e-05
-1.32548e-06
1.01051e-05
-4.09971e-06
5.6349e-06
-9.71588e-06
-1.50532e-05
6.06188e-06
9.52872e-06
1.23013e-05
1.49692e-05
1.75838e-05
2.0041e-05
2.22682e-05
2.42017e-05
2.58472e-05
2.71914e-05
2.82824e-05
2.91171e-05
2.97605e-05
3.01863e-05
3.04097e-05
3.01943e-05
2.88688e-05
2.47691e-05
1.50532e-05
)
;

boundaryField
{
    movingWall
    {
        type            calculated;
        value           uniform 0;
    }
    fixedWalls
    {
        type            calculated;
        value           uniform 0;
    }
    frontAndBack
    {
        type            empty;
        value           nonuniform List<scalar> 0();
    }
}


// ************************************************************************* //
