/*--------------------------------*- C++ -*----------------------------------*\
| =========                 |                                                 |
| \\      /  F ield         | OpenFOAM: The Open Source CFD Toolbox           |
|  \\    /   O peration     | Version:  2212                                  |
|   \\  /    A nd           | Website:  www.openfoam.com                      |
|    \\/     M anipulation  |                                                 |
\*---------------------------------------------------------------------------*/
FoamFile
{
    version     2.0;
    format      ascii;
    arch        "LSB;label=32;scalar=64";
    class       volScalarField;
    location    "1.205";
    object      p;
}
// * * * * * * * * * * * * * * * * * * * * * * * * * * * * * * * * * * * * * //

dimensions      [0 2 -2 0 0 0 0];

internalField   nonuniform List<scalar> 
400
(
3.24045e-06
-0.00582449
-0.0129625
-0.018415
-0.0204327
-0.0182391
-0.0117745
-0.0014843
0.0118368
0.0271487
0.043244
0.0588228
0.0725786
0.0833086
0.0900529
0.0922671
0.0900258
0.0842438
0.0768805
0.0710669
0.0057816
-0.000217699
-0.00580374
-0.0095426
-0.0105992
-0.00843312
-0.00297041
0.00547364
0.0163024
0.0287113
0.0417494
0.0543857
0.0655863
0.0744099
0.0801203
0.0823158
0.0810773
0.0770547
0.0712739
0.0653176
0.0133358
0.00503411
-0.00099509
-0.00442311
-0.00527314
-0.00326431
0.00160187
0.00902708
0.0185016
0.0293488
0.040765
0.0518693
0.0617683
0.0696362
0.0748069
0.076878
0.0758415
0.0720858
0.0658052
0.0575351
0.02014
0.00869635
0.00122608
-0.00266848
-0.00372227
-0.00188565
0.0027308
0.00978404
0.0187799
0.0290946
0.0399916
0.0506537
0.0602326
0.0679157
0.0730029
0.0750013
0.0737656
0.0694559
0.0616026
0.0501021
0.0245026
0.00977348
0.000589999
-0.00398682
-0.00530229
-0.00350758
0.00117432
0.00833402
0.0174614
0.0279486
0.0390846
0.0500696
0.0600485
0.0681647
0.073626
0.0757974
0.0743686
0.0692894
0.0595251
0.0445366
0.0251784
0.00715036
-0.00380182
-0.00905709
-0.0105121
-0.0085001
-0.00335711
0.00442897
0.0143128
0.0256784
0.0378133
0.0499029
0.0610477
0.0703028
0.0767342
0.0795164
0.0781385
0.0723331
0.0605388
0.0418895
0.0210939
-0.000262094
-0.0129344
-0.0187092
-0.0200298
-0.0174139
-0.0113185
-0.00232001
0.00898997
0.0219756
0.0359091
0.0499439
0.0631118
0.0743449
0.0825215
0.0865691
0.0857202
0.0794466
0.0656198
0.0430711
0.0111432
-0.013618
-0.027875
-0.0338542
-0.0346035
-0.0308575
-0.0232129
-0.0123453
0.00110454
0.0164834
0.033052
0.0499331
0.0660829
0.0802895
0.0912004
0.0974297
0.0978699
0.0916356
0.0758958
0.049116
-0.00596695
-0.0342663
-0.04987
-0.0555486
-0.0550902
-0.0495146
-0.0395935
-0.0261134
-0.00975727
0.0088227
0.0289006
0.049593
0.0697971
0.0881542
0.103047
0.112701
0.11555
0.110191
0.0928339
0.061411
-0.0318571
-0.0638761
-0.0804169
-0.0850072
-0.0824202
-0.0740784
-0.060981
-0.0440367
-0.0239516
-0.00133705
0.0231453
0.0486607
0.0740952
0.0979719
0.118396
0.133125
0.139988
0.136818
0.11844
0.0819335
-0.0686674
-0.104603
-0.121344
-0.12359
-0.117516
-0.105127
-0.0877184
-0.0663256
-0.041637
-0.0141557
0.0156055
0.046953
0.0788555
0.109793
0.137624
0.159585
0.172727
0.173778
0.15552
0.113571
-0.119402
-0.159357
-0.174915
-0.172757
-0.161148
-0.142929
-0.119759
-0.092777
-0.0625774
-0.0294476
0.00637316
0.0444735
0.0840551
0.123703
0.161136
0.193086
0.215668
0.224077
0.208051
0.160633
-0.188628
-0.232242
-0.243938
-0.233948
-0.213694
-0.187154
-0.156372
-0.122501
-0.0858977
-0.046472
-0.00401424
0.0415391
0.0898424
0.13983
0.189319
0.234689
0.271075
0.291665
0.281743
0.229776
-0.283974
-0.329304
-0.331831
-0.308279
-0.274708
-0.236439
-0.195764
-0.153609
-0.10984
-0.0637447
-0.0144374
0.038864
0.0965549
0.158277
0.222375
0.285288
0.341398
0.381576
0.384915
0.331835
-0.419318
-0.45967
-0.44235
-0.395791
-0.342128
-0.287738
-0.234615
-0.182929
-0.131608
-0.0789839
-0.023213
0.0374763
0.104554
0.178839
0.259862
0.344971
0.428617
0.499701
0.529676
0.485392
-0.62053
-0.636742
-0.578676
-0.494192
-0.411239
-0.335657
-0.267779
-0.205976
-0.147535
-0.0893813
-0.0284245
0.0383498
0.113808
0.200473
0.299977
0.412027
0.533031
0.651777
0.732773
0.722397
-0.935922
-0.878513
-0.74174
-0.597946
-0.474391
-0.372657
-0.288866
-0.217761
-0.153951
-0.0924618
-0.0287153
0.0416977
0.123265
0.22072
0.338928
0.482157
0.651999
0.841344
1.01527
1.09751
-1.47642
-1.20663
-0.920501
-0.691385
-0.517303
-0.387542
-0.290059
-0.213335
-0.148122
-0.0872132
-0.0245754
0.0454597
0.12894
0.233073
0.367105
0.54268
0.771295
1.05932
1.40329
1.73014
-2.53965
-1.63055
-1.04444
-0.710956
-0.495748
-0.352091
-0.254528
-0.183581
-0.126167
-0.0735929
-0.0192668
0.042789
0.119214
0.218785
0.354814
0.547986
0.826395
1.23658
1.91168
2.9242
-4.36666
-2.04463
-0.97354
-0.563178
-0.357844
-0.240144
-0.170117
-0.123781
-0.087479
-0.0535081
-0.0166523
0.0276627
0.0846095
0.161732
0.272413
0.442101
0.718221
1.22571
2.41104
4.84853
)
;

boundaryField
{
    movingWall
    {
        type            zeroGradient;
    }
    fixedWalls
    {
        type            zeroGradient;
    }
    frontAndBack
    {
        type            empty;
    }
}


// ************************************************************************* //
