/*--------------------------------*- C++ -*----------------------------------*\
| =========                 |                                                 |
| \\      /  F ield         | OpenFOAM: The Open Source CFD Toolbox           |
|  \\    /   O peration     | Version:  2212                                  |
|   \\  /    A nd           | Website:  www.openfoam.com                      |
|    \\/     M anipulation  |                                                 |
\*---------------------------------------------------------------------------*/
FoamFile
{
    version     2.0;
    format      ascii;
    arch        "LSB;label=32;scalar=64";
    class       volVectorField;
    location    "2.12";
    object      U;
}
// * * * * * * * * * * * * * * * * * * * * * * * * * * * * * * * * * * * * * //

dimensions      [0 1 -1 0 0 0 0];

internalField   nonuniform List<vector> 
400
(
(0.00118511 -0.00124985 0)
(0.00323708 -0.00132882 0)
(0.00411668 -0.000888794 0)
(0.00302934 -0.000374587 0)
(-0.000637304 0.000331 0)
(-0.00781748 0.00163569 0)
(-0.0193937 0.00393696 0)
(-0.0353083 0.00695456 0)
(-0.0535479 0.00922264 0)
(-0.069999 0.00904989 0)
(-0.0803566 0.00619023 0)
(-0.0819493 0.00178146 0)
(-0.0736905 -0.00294401 0)
(-0.0560269 -0.00723568 0)
(-0.0323717 -0.00966627 0)
(-0.00681249 -0.00882805 0)
(0.0133356 -0.00456046 0)
(0.0208459 0.0021952 0)
(0.0141859 0.00559695 0)
(0.00390025 0.00415476 0)
(0.00089678 -0.00325862 0)
(0.000883935 -0.00211924 0)
(-0.00318072 0.00127682 0)
(-0.0127357 0.00583094 0)
(-0.0294986 0.011921 0)
(-0.0541807 0.0197299 0)
(-0.0846898 0.0276151 0)
(-0.115767 0.0320033 0)
(-0.141747 0.030162 0)
(-0.158896 0.0221211 0)
(-0.165358 0.00967845 0)
(-0.160735 -0.0049253 0)
(-0.145535 -0.0198357 0)
(-0.120284 -0.0327423 0)
(-0.0871994 -0.0401321 0)
(-0.0490054 -0.0380639 0)
(-0.011397 -0.0244768 0)
(0.014429 -0.00213038 0)
(0.0158704 0.0140256 0)
(0.00510174 0.0131812 0)
(-0.000868289 -0.00266931 0)
(-0.00630742 0.00324889 0)
(-0.0189902 0.0133186 0)
(-0.039882 0.0264087 0)
(-0.0697949 0.0413854 0)
(-0.106008 0.0548583 0)
(-0.142643 0.0621159 0)
(-0.174229 0.060223 0)
(-0.197875 0.0493857 0)
(-0.212439 0.0315159 0)
(-0.217556 0.00883788 0)
(-0.213583 -0.0165401 0)
(-0.200807 -0.0424676 0)
(-0.178848 -0.0655074 0)
(-0.147509 -0.0807929 0)
(-0.106959 -0.08174 0)
(-0.0593428 -0.0621132 0)
(-0.0128019 -0.0222914 0)
(0.008734 0.015124 0)
(0.00407461 0.0212217 0)
(-0.00319772 0.00351544 0)
(-0.0155102 0.0176788 0)
(-0.037716 0.0360283 0)
(-0.0681785 0.0575246 0)
(-0.1056 0.0779883 0)
(-0.144839 0.0914915 0)
(-0.179922 0.0937331 0)
(-0.207751 0.0843082 0)
(-0.227791 0.0654757 0)
(-0.2402 0.0397426 0)
(-0.245471 0.00909721 0)
(-0.244299 -0.024954 0)
(-0.236736 -0.0602727 0)
(-0.221815 -0.093833 0)
(-0.19773 -0.120457 0)
(-0.162 -0.131802 0)
(-0.112675 -0.116617 0)
(-0.0521606 -0.0664306 0)
(-0.000941334 0.00162273 0)
(0.00459651 0.0256519 0)
(-0.00560297 0.0158366 0)
(-0.0240924 0.0403202 0)
(-0.053307 0.066178 0)
(-0.088752 0.0932623 0)
(-0.127477 0.114997 0)
(-0.163685 0.124983 0)
(-0.193043 0.120851 0)
(-0.214624 0.104459 0)
(-0.229112 0.079136 0)
(-0.237736 0.047653 0)
(-0.24201 0.0117859 0)
(-0.242963 -0.0274774 0)
(-0.240615 -0.0688509 0)
(-0.234226 -0.110731 0)
(-0.221311 -0.149296 0)
(-0.197435 -0.176427 0)
(-0.157101 -0.177655 0)
(-0.096304 -0.133577 0)
(-0.0201905 -0.0370102 0)
(0.00682037 0.0247958 0)
(-0.00697033 0.032328 0)
(-0.029079 0.067806 0)
(-0.0613118 0.0991174 0)
(-0.0968198 0.12858 0)
(-0.132014 0.148496 0)
(-0.161656 0.153205 0)
(-0.183253 0.142424 0)
(-0.197264 0.119727 0)
(-0.205168 0.0892156 0)
(-0.209086 0.0540208 0)
(-0.211125 0.0159572 0)
(-0.212516 -0.0243211 0)
(-0.213607 -0.0669254 0)
(-0.214349 -0.1121 0)
(-0.212736 -0.158609 0)
(-0.203735 -0.201065 0)
(-0.179549 -0.225619 0)
(-0.132054 -0.20609 0)
(-0.0575705 -0.110817 0)
(0.00527325 0.0130247 0)
(-0.00675595 0.0504494 0)
(-0.0291773 0.0963669 0)
(-0.0604566 0.130808 0)
(-0.092341 0.159981 0)
(-0.12139 0.176172 0)
(-0.143425 0.17487 0)
(-0.157506 0.157626 0)
(-0.164946 0.129349 0)
(-0.167756 0.0948211 0)
(-0.168363 0.0574377 0)
(-0.168659 0.0189211 0)
(-0.169599 -0.0203711 0)
(-0.171786 -0.0612898 0)
(-0.175852 -0.105214 0)
(-0.181127 -0.153282 0)
(-0.183885 -0.204353 0)
(-0.176144 -0.249319 0)
(-0.148026 -0.262221 0)
(-0.0934405 -0.194657 0)
(-0.00774997 -0.014091 0)
(-0.00502095 0.0673388 0)
(-0.024682 0.122806 0)
(-0.0519616 0.158669 0)
(-0.0781504 0.185862 0)
(-0.100326 0.197487 0)
(-0.115501 0.1902 0)
(-0.123848 0.167117 0)
(-0.127134 0.134226 0)
(-0.127581 0.0968067 0)
(-0.127374 0.0582164 0)
(-0.127638 0.0197729 0)
(-0.128664 -0.0185541 0)
(-0.130882 -0.0576185 0)
(-0.135193 -0.0987633 0)
(-0.142261 -0.144164 0)
(-0.150706 -0.196427 0)
(-0.15425 -0.253418 0)
(-0.142405 -0.295109 0)
(-0.107935 -0.264613 0)
(-0.028575 -0.0699457 0)
(-0.00226683 0.0804404 0)
(-0.0169546 0.144587 0)
(-0.0383277 0.180954 0)
(-0.0579857 0.205355 0)
(-0.0736101 0.212487 0)
(-0.0833056 0.200112 0)
(-0.0879088 0.172499 0)
(-0.0892575 0.136386 0)
(-0.0894013 0.09732 0)
(-0.0899143 0.0583856 0)
(-0.0911211 0.0203177 0)
(-0.0928261 -0.0173828 0)
(-0.0951458 -0.055396 0)
(-0.0987649 -0.0943943 0)
(-0.105024 -0.136225 0)
(-0.114783 -0.185417 0)
(-0.12458 -0.24665 0)
(-0.123702 -0.310243 0)
(-0.104561 -0.320934 0)
(-0.0359347 -0.152976 0)
(0.000905699 0.0879033 0)
(-0.00745123 0.16012 0)
(-0.0218323 0.19706 0)
(-0.0348085 0.21892 0)
(-0.0445121 0.222477 0)
(-0.0499733 0.206402 0)
(-0.0522566 0.175752 0)
(-0.0529132 0.137771 0)
(-0.053523 0.098107 0)
(-0.0550181 0.0594398 0)
(-0.05726 0.0218841 0)
(-0.0598826 -0.0154377 0)
(-0.0628064 -0.0530642 0)
(-0.0663204 -0.0910208 0)
(-0.0716002 -0.130071 0)
(-0.0805689 -0.174645 0)
(-0.0932071 -0.234075 0)
(-0.0992333 -0.310847 0)
(-0.0935919 -0.358599 0)
(-0.0304988 -0.230969 0)
(0.00396023 0.0888239 0)
(0.00236366 0.168354 0)
(-0.00467667 0.206554 0)
(-0.0111326 0.226437 0)
(-0.0154795 0.227459 0)
(-0.0173533 0.209252 0)
(-0.0178305 0.177267 0)
(-0.018006 0.138855 0)
(-0.0188772 0.0994929 0)
(-0.0208915 0.0614856 0)
(-0.0237463 0.0245899 0)
(-0.0271412 -0.0122303 0)
(-0.0310508 -0.0495259 0)
(-0.0354685 -0.0870392 0)
(-0.0410623 -0.124525 0)
(-0.0494908 -0.16507 0)
(-0.0637522 -0.220028 0)
(-0.0738844 -0.303732 0)
(-0.0805016 -0.382643 0)
(-0.0228754 -0.29466 0)
(0.006404 0.0836203 0)
(0.0114851 0.169133 0)
(0.0117091 0.209675 0)
(0.0115511 0.228804 0)
(0.0123641 0.228695 0)
(0.0140358 0.209879 0)
(0.0155526 0.177914 0)
(0.0162434 0.140004 0)
(0.0156532 0.101382 0)
(0.0136971 0.0641685 0)
(0.010695 0.0281004 0)
(0.00676202 -0.00785005 0)
(0.001766 -0.044341 0)
(-0.00418331 -0.0810651 0)
(-0.0114294 -0.117405 0)
(-0.0205095 -0.154748 0)
(-0.0368726 -0.204057 0)
(-0.0496239 -0.289636 0)
(-0.0681189 -0.394765 0)
(-0.0147459 -0.347539 0)
(0.00759276 0.0734504 0)
(0.0186267 0.162621 0)
(0.0257012 0.205964 0)
(0.0314345 0.225054 0)
(0.0372722 0.224785 0)
(0.0429206 0.206711 0)
(0.0472944 0.176135 0)
(0.0498393 0.13978 0)
(0.0504012 0.102577 0)
(0.0491364 0.0666136 0)
(0.0463989 0.0317966 0)
(0.0420568 -0.00286121 0)
(0.0360742 -0.0378039 0)
(0.0284134 -0.0730346 0)
(0.0184841 -0.107892 0)
(0.00720748 -0.142654 0)
(-0.0124004 -0.186876 0)
(-0.0263031 -0.270928 0)
(-0.0568003 -0.3974 0)
(-0.00664487 -0.389823 0)
(0.00708969 0.0602533 0)
(0.0226041 0.14949 0)
(0.0361826 0.196097 0)
(0.0478551 0.21638 0)
(0.0589762 0.217085 0)
(0.0692407 0.200893 0)
(0.0774505 0.172755 0)
(0.082926 0.138731 0)
(0.0855614 0.103435 0)
(0.085597 0.0690602 0)
(0.0833572 0.035867 0)
(0.0788889 0.00312468 0)
(0.0719387 -0.0295111 0)
(0.0624342 -0.0624289 0)
(0.049523 -0.0950717 0)
(0.034779 -0.127183 0)
(0.0105693 -0.166505 0)
(-0.00321727 -0.247614 0)
(-0.0465056 -0.393774 0)
(0.00198389 -0.425303 0)
(0.00491171 0.0468586 0)
(0.022189 0.131839 0)
(0.0407679 0.179691 0)
(0.0579327 0.200375 0)
(0.074661 0.202063 0)
(0.0904734 0.188394 0)
(0.103844 0.163794 0)
(0.11372 0.133403 0)
(0.119779 0.101324 0)
(0.122185 0.0697396 0)
(0.121182 0.0392778 0)
(0.116979 0.00955178 0)
(0.108948 -0.0198358 0)
(0.0976494 -0.0492935 0)
(0.0812773 -0.0785707 0)
(0.0625769 -0.108075 0)
(0.0332789 -0.143496 0)
(0.0196798 -0.22176 0)
(-0.0368107 -0.386989 0)
(0.0122917 -0.455246 0)
(0.0015611 0.0358222 0)
(0.0171624 0.112247 0)
(0.0394973 0.15995 0)
(0.0621279 0.18096 0)
(0.0849426 0.183527 0)
(0.106959 0.172353 0)
(0.126379 0.151635 0)
(0.141683 0.125567 0)
(0.152173 0.0975948 0)
(0.157893 0.069737 0)
(0.158743 0.0428501 0)
(0.155418 0.0168852 0)
(0.146568 -0.00846412 0)
(0.133646 -0.0334348 0)
(0.113602 -0.058219 0)
(0.0910587 -0.0842438 0)
(0.0566615 -0.116899 0)
(0.0418867 -0.193852 0)
(-0.0259442 -0.377875 0)
(0.0267949 -0.478766 0)
(-0.00302541 0.0326455 0)
(0.00515495 0.0954526 0)
(0.0262579 0.13318 0)
(0.0538151 0.15083 0)
(0.083566 0.153557 0)
(0.113101 0.145213 0)
(0.139903 0.129245 0)
(0.162063 0.108802 0)
(0.178338 0.0866241 0)
(0.18873 0.0643631 0)
(0.192538 0.0429901 0)
(0.191029 0.0225692 0)
(0.182163 0.00304931 0)
(0.168761 -0.0160578 0)
(0.145857 -0.0349624 0)
(0.121019 -0.0567131 0)
(0.0821972 -0.0885413 0)
(0.0638596 -0.168251 0)
(-0.00806797 -0.363742 0)
(0.0502983 -0.487515 0)
(-0.0109573 0.0227905 0)
(-0.00815229 0.0874853 0)
(0.0110963 0.115824 0)
(0.0423453 0.1248 0)
(0.078215 0.123897 0)
(0.114447 0.116648 0)
(0.147925 0.104879 0)
(0.176133 0.0900074 0)
(0.197593 0.0740755 0)
(0.212676 0.0579684 0)
(0.219691 0.0428642 0)
(0.221522 0.0285791 0)
(0.2142 0.0157324 0)
(0.203832 0.0030983 0)
(0.181804 -0.00939804 0)
(0.160913 -0.0271046 0)
(0.120549 -0.0587872 0)
(0.100214 -0.139509 0)
(0.0336421 -0.324328 0)
(0.0909057 -0.454495 0)
(-0.10412 0.085443 0)
(-0.0770215 0.070406 0)
(-0.0514568 0.069417 0)
(-0.00441756 0.0710639 0)
(0.043379 0.0705015 0)
(0.0910606 0.0669117 0)
(0.134499 0.0610582 0)
(0.174197 0.0533079 0)
(0.205236 0.0452465 0)
(0.232917 0.0369111 0)
(0.249498 0.0294716 0)
(0.265547 0.0223858 0)
(0.268062 0.0165834 0)
(0.273977 0.0108363 0)
(0.261321 0.00480291 0)
(0.256705 -0.0061589 0)
(0.220784 -0.0316356 0)
(0.211561 -0.0930287 0)
(0.147956 -0.229285 0)
(0.170167 -0.341306 0)
(0.131226 0.104982 0)
(0.161075 0.0779001 0)
(0.216161 0.0559274 0)
(0.273818 0.0435154 0)
(0.323968 0.0369196 0)
(0.37297 0.0323418 0)
(0.41434 0.0290499 0)
(0.456827 0.0256519 0)
(0.488185 0.0230771 0)
(0.522345 0.0199841 0)
(0.541696 0.0179919 0)
(0.567811 0.0151449 0)
(0.575025 0.0138736 0)
(0.59458 0.0111257 0)
(0.587944 0.0103039 0)
(0.598292 0.00583164 0)
(0.56477 0.000932747 0)
(0.54699 -0.0176052 0)
(0.436859 -0.0500425 0)
(0.337552 -0.101255 0)
)
;

boundaryField
{
    movingWall
    {
        type            fixedValue;
        value           uniform (1 0 0);
    }
    fixedWalls
    {
        type            noSlip;
    }
    frontAndBack
    {
        type            empty;
    }
}


// ************************************************************************* //
