/*--------------------------------*- C++ -*----------------------------------*\
| =========                 |                                                 |
| \\      /  F ield         | OpenFOAM: The Open Source CFD Toolbox           |
|  \\    /   O peration     | Version:  2212                                  |
|   \\  /    A nd           | Website:  www.openfoam.com                      |
|    \\/     M anipulation  |                                                 |
\*---------------------------------------------------------------------------*/
FoamFile
{
    version     2.0;
    format      ascii;
    arch        "LSB;label=32;scalar=64";
    class       volScalarField;
    location    "4.615";
    object      p;
}
// * * * * * * * * * * * * * * * * * * * * * * * * * * * * * * * * * * * * * //

dimensions      [0 2 -2 0 0 0 0];

internalField   nonuniform List<scalar> 
400
(
1.74443e-07
-0.000150161
-0.000532072
-0.0010666
-0.00172417
-0.00248148
-0.00316916
-0.00357975
-0.00354697
-0.00291705
-0.00153579
0.000625081
0.0032499
0.00551601
0.00654741
0.00595632
0.00405354
0.00221071
0.00117297
0.00110207
0.000116444
-5.71598e-05
-0.00037416
-0.000759678
-0.00123778
-0.0018786
-0.00269152
-0.00352295
-0.0040552
-0.00391331
-0.00282564
-0.000811182
0.00169739
0.00397013
0.00514491
0.00478151
0.00316059
0.00143868
0.000657606
0.000745558
0.00053405
0.000264622
-7.55677e-05
-0.000555662
-0.00133901
-0.00256421
-0.00419088
-0.00594223
-0.00735038
-0.0078879
-0.00721222
-0.0054176
-0.00285534
-0.000162051
0.00182867
0.0024761
0.00177069
0.000570109
-0.000327447
-0.000327818
0.00114413
0.00073592
0.000190691
-0.000769279
-0.0024332
-0.00490068
-0.007934
-0.0110347
-0.0135977
-0.0150609
-0.0150913
-0.0137326
-0.0111994
-0.00794817
-0.00468033
-0.00214127
-0.000801911
-0.000637265
-0.00121881
-0.00184972
0.00156621
0.000961432
-2.61428e-05
-0.00191092
-0.00496719
-0.00910543
-0.0137995
-0.0183273
-0.0220327
-0.0244502
-0.0253206
-0.0245242
-0.0221846
-0.0185897
-0.0141763
-0.00955012
-0.00550508
-0.00287514
-0.00212599
-0.00394442
0.00127031
0.000429357
-0.00119672
-0.00427406
-0.00893126
-0.014754
-0.0208907
-0.0264816
-0.0309156
-0.0338752
-0.0352321
-0.0348859
-0.0329188
-0.0294763
-0.0246976
-0.0188005
-0.0123837
-0.00685862
-0.00432736
-0.00644234
-6.96033e-05
-0.00115864
-0.0034858
-0.00773937
-0.0138147
-0.0209274
-0.0279796
-0.0340869
-0.0387547
-0.0418218
-0.0432949
-0.0431944
-0.0415865
-0.0385381
-0.0340251
-0.0279295
-0.0203681
-0.0125827
-0.0077681
-0.0076741
-0.00246016
-0.0037392
-0.00666302
-0.0118216
-0.0188734
-0.0267328
-0.0341728
-0.0403714
-0.0449785
-0.0479585
-0.0494
-0.0493981
-0.0480311
-0.0453445
-0.0412876
-0.0356255
-0.028096
-0.0192084
-0.0117164
-0.00791101
-0.00552781
-0.00689112
-0.0102011
-0.0158937
-0.0234445
-0.0315827
-0.0390514
-0.0451254
-0.0495743
-0.0524386
-0.0538398
-0.0538845
-0.052647
-0.0501837
-0.0465017
-0.0414396
-0.0345791
-0.0257367
-0.0165686
-0.00990435
-0.00870216
-0.0100392
-0.0135086
-0.0193816
-0.0270333
-0.0351332
-0.0424568
-0.0483582
-0.0526738
-0.0554687
-0.0568597
-0.0569337
-0.0557539
-0.0533902
-0.0499208
-0.0453294
-0.0392968
-0.0312702
-0.0221395
-0.0142081
-0.0114546
-0.0126929
-0.0161102
-0.0218714
-0.0293283
-0.0372049
-0.0443364
-0.0501076
-0.0543622
-0.0571464
-0.0585532
-0.0586465
-0.0574771
-0.0551203
-0.0517148
-0.0473865
-0.0420663
-0.0351038
-0.0269875
-0.0190113
-0.0134897
-0.0145435
-0.0177372
-0.0231243
-0.030145
-0.0376716
-0.0446193
-0.0503481
-0.0546372
-0.0574803
-0.0589317
-0.0590359
-0.0578347
-0.055405
-0.0519372
-0.0476703
-0.0428438
-0.0367795
-0.0298174
-0.0222358
-0.0147749
-0.0154922
-0.0182363
-0.0230274
-0.0294211
-0.0365052
-0.0432863
-0.0490607
-0.0534864
-0.0564654
-0.0579989
-0.0581086
-0.0568314
-0.0542664
-0.0506292
-0.0462213
-0.0416373
-0.0360571
-0.0300358
-0.0227318
-0.0154075
-0.0156538
-0.0176767
-0.021588
-0.0271517
-0.0337
-0.0403197
-0.0462128
-0.0508793
-0.0540901
-0.05577
-0.0559132
-0.0545356
-0.0517655
-0.0478619
-0.0432122
-0.0384702
-0.0329631
-0.0279576
-0.0201651
-0.0155191
-0.0152417
-0.0162611
-0.0189675
-0.0234673
-0.0293657
-0.0358113
-0.0418836
-0.0468933
-0.0504434
-0.0523528
-0.0525618
-0.0511108
-0.0480906
-0.0438313
-0.038775
-0.0336127
-0.0279829
-0.0241646
-0.0143502
-0.0152292
-0.0145071
-0.0142115
-0.0153523
-0.0185637
-0.0237043
-0.0299577
-0.0362541
-0.0416982
-0.0457016
-0.0479589
-0.0483409
-0.0468711
-0.0436196
-0.0389549
-0.0333436
-0.0275754
-0.0216408
-0.0181023
-0.00389372
-0.0146251
-0.013589
-0.0116867
-0.0110583
-0.0129026
-0.017274
-0.0233527
-0.0299064
-0.0358518
-0.0404102
-0.0431454
-0.0438318
-0.0424624
-0.0390697
-0.0339871
-0.0276134
-0.0207203
-0.0134001
-0.00695942
0.0158994
-0.0145626
-0.0126435
-0.00865676
-0.00626058
-0.00692472
-0.0107174
-0.0167217
-0.0235647
-0.0300468
-0.0352267
-0.0385573
-0.0396906
-0.0385733
-0.0352181
-0.0297716
-0.0222772
-0.0129997
-0.000914212
0.0164221
0.0568369
-0.0117906
-0.0118357
-0.00576661
-0.00184366
-0.00183039
-0.00543422
-0.0115414
-0.0187037
-0.0256872
-0.0314366
-0.0353742
-0.0370695
-0.0364251
-0.033166
-0.0271419
-0.0175867
-0.00332413
0.0202118
0.0603948
0.12957
-0.0295065
-0.0106466
-0.000668152
0.00299265
0.00236115
-0.00161015
-0.00799116
-0.0154684
-0.0228136
-0.0289468
-0.0332648
-0.0353132
-0.0349554
-0.0317761
-0.0251449
-0.0128954
0.00925991
0.0509152
0.122602
0.225851
)
;

boundaryField
{
    movingWall
    {
        type            zeroGradient;
    }
    fixedWalls
    {
        type            zeroGradient;
    }
    frontAndBack
    {
        type            empty;
    }
}


// ************************************************************************* //
