/*--------------------------------*- C++ -*----------------------------------*\
| =========                 |                                                 |
| \\      /  F ield         | OpenFOAM: The Open Source CFD Toolbox           |
|  \\    /   O peration     | Version:  2212                                  |
|   \\  /    A nd           | Website:  www.openfoam.com                      |
|    \\/     M anipulation  |                                                 |
\*---------------------------------------------------------------------------*/
FoamFile
{
    version     2.0;
    format      ascii;
    arch        "LSB;label=32;scalar=64";
    class       volScalarField;
    location    "1.66";
    object      p;
}
// * * * * * * * * * * * * * * * * * * * * * * * * * * * * * * * * * * * * * //

dimensions      [0 2 -2 0 0 0 0];

internalField   nonuniform List<scalar> 
400
(
2.6687e-06
-0.00582544
-0.0129636
-0.0184161
-0.0204338
-0.0182402
-0.0117756
-0.00148537
0.0118358
0.0271477
0.043243
0.0588217
0.0725775
0.0833074
0.0900518
0.092266
0.0900248
0.0842428
0.0768795
0.0710659
0.00578062
-0.00021873
-0.00580477
-0.00954363
-0.0106003
-0.00843423
-0.00297155
0.00547251
0.0163013
0.0287102
0.0417484
0.0543846
0.0655852
0.0744088
0.0801191
0.0823147
0.0810762
0.0770537
0.0712729
0.0653165
0.0133347
0.00503304
-0.000996144
-0.00442413
-0.00527415
-0.00326536
0.00160076
0.00902593
0.0185004
0.0293477
0.040764
0.0518683
0.0617672
0.0696351
0.0748058
0.0768768
0.0758404
0.0720846
0.0658042
0.0575341
0.0201389
0.00869525
0.00122499
-0.00266954
-0.00372328
-0.00188665
0.00272975
0.00978291
0.0187787
0.0290934
0.0399905
0.0506526
0.0602316
0.0679147
0.0730019
0.0750002
0.0737644
0.0694547
0.0616015
0.050101
0.0245015
0.00977237
0.000588867
-0.00398793
-0.00530334
-0.00350858
0.00117332
0.00833297
0.0174603
0.0279474
0.0390834
0.0500684
0.0600475
0.0681637
0.073625
0.0757963
0.0743675
0.0692883
0.059524
0.0445355
0.0251774
0.00714929
-0.00380295
-0.00905824
-0.0105132
-0.00850114
-0.0033581
0.00442798
0.0143117
0.0256773
0.0378121
0.0499017
0.0610466
0.0703017
0.0767332
0.0795154
0.0781374
0.072332
0.0605376
0.0418883
0.0210929
-0.00026313
-0.0129354
-0.0187104
-0.0200309
-0.0174151
-0.0113196
-0.00232099
0.00898898
0.0219746
0.035908
0.0499427
0.0631106
0.0743438
0.0825204
0.086568
0.0857192
0.0794455
0.0656188
0.04307
0.0111421
-0.013619
-0.027876
-0.0338553
-0.0346047
-0.0308587
-0.023214
-0.0123464
0.00110355
0.0164825
0.033051
0.049932
0.0660818
0.0802883
0.0911992
0.0974286
0.0978688
0.0916346
0.0758947
0.0491149
-0.00596807
-0.0342674
-0.049871
-0.0555496
-0.0550913
-0.0495158
-0.0395947
-0.0261145
-0.00975831
0.00882171
0.0288996
0.049592
0.069796
0.088153
0.103046
0.1127
0.115549
0.11019
0.0928328
0.0614099
-0.0318582
-0.0638772
-0.0804179
-0.0850082
-0.0824212
-0.0740795
-0.0609821
-0.0440378
-0.0239527
-0.00133811
0.0231443
0.0486597
0.0740942
0.0979708
0.118395
0.133124
0.139987
0.136817
0.118439
0.0819324
-0.0686686
-0.104604
-0.121346
-0.123591
-0.117517
-0.105128
-0.0877195
-0.0663267
-0.0416382
-0.0141568
0.0156044
0.046952
0.0788545
0.109792
0.137622
0.159584
0.172726
0.173777
0.155519
0.11357
-0.119404
-0.159358
-0.174916
-0.172758
-0.161149
-0.14293
-0.11976
-0.0927781
-0.0625786
-0.0294488
0.00637202
0.0444724
0.0840541
0.123702
0.161135
0.193085
0.215667
0.224076
0.208049
0.160631
-0.188629
-0.232243
-0.24394
-0.233949
-0.213695
-0.187155
-0.156373
-0.122502
-0.0858988
-0.0464731
-0.0040154
0.0415379
0.0898413
0.139828
0.189318
0.234688
0.271074
0.291663
0.281742
0.229775
-0.283975
-0.329305
-0.331832
-0.308281
-0.274709
-0.23644
-0.195765
-0.15361
-0.109841
-0.0637457
-0.0144385
0.0388628
0.0965537
0.158276
0.222374
0.285287
0.341397
0.381575
0.384914
0.331834
-0.419319
-0.459671
-0.442351
-0.395792
-0.342129
-0.287739
-0.234616
-0.18293
-0.131609
-0.0789849
-0.0232141
0.0374752
0.104553
0.178838
0.259861
0.34497
0.428616
0.4997
0.529675
0.485391
-0.620531
-0.636743
-0.578677
-0.494193
-0.41124
-0.335658
-0.26778
-0.205977
-0.147536
-0.0893824
-0.0284255
0.0383488
0.113807
0.200472
0.299976
0.412026
0.53303
0.651775
0.732772
0.722396
-0.935923
-0.878514
-0.741741
-0.597947
-0.474392
-0.372658
-0.288867
-0.217762
-0.153952
-0.0924629
-0.0287164
0.0416966
0.123264
0.220719
0.338927
0.482156
0.651997
0.841342
1.01527
1.0975
-1.47642
-1.20663
-0.920502
-0.691387
-0.517304
-0.387543
-0.29006
-0.213336
-0.148123
-0.0872144
-0.0245765
0.0454586
0.128938
0.233072
0.367104
0.542679
0.771294
1.05932
1.40329
1.73014
-2.53965
-1.63055
-1.04444
-0.710957
-0.495749
-0.352092
-0.254529
-0.183582
-0.126168
-0.073594
-0.0192679
0.0427879
0.119213
0.218784
0.354813
0.547985
0.826394
1.23658
1.91168
2.92419
-4.36666
-2.04463
-0.973541
-0.563179
-0.357845
-0.240145
-0.170118
-0.123782
-0.08748
-0.0535091
-0.0166534
0.0276616
0.0846084
0.161731
0.272412
0.4421
0.71822
1.22571
2.41104
4.84853
)
;

boundaryField
{
    movingWall
    {
        type            zeroGradient;
    }
    fixedWalls
    {
        type            zeroGradient;
    }
    frontAndBack
    {
        type            empty;
    }
}


// ************************************************************************* //
