/*--------------------------------*- C++ -*----------------------------------*\
| =========                 |                                                 |
| \\      /  F ield         | OpenFOAM: The Open Source CFD Toolbox           |
|  \\    /   O peration     | Version:  2212                                  |
|   \\  /    A nd           | Website:  www.openfoam.com                      |
|    \\/     M anipulation  |                                                 |
\*---------------------------------------------------------------------------*/
FoamFile
{
    version     2.0;
    format      ascii;
    arch        "LSB;label=32;scalar=64";
    class       surfaceScalarField;
    location    "4.45";
    object      phi;
}
// * * * * * * * * * * * * * * * * * * * * * * * * * * * * * * * * * * * * * //

dimensions      [0 3 -1 0 0 0 0];

oriented        oriented;

internalField   nonuniform List<scalar> 
760
(
1.54541e-07
-1.54527e-07
2.90277e-07
-1.35737e-07
3.05853e-07
-1.55754e-08
1.79648e-07
1.26205e-07
-1.23246e-07
3.02894e-07
-6.66147e-07
5.42901e-07
-1.48085e-06
8.14699e-07
-2.48108e-06
1.00023e-06
-3.46649e-06
9.85408e-07
-4.20515e-06
7.38666e-07
-4.53022e-06
3.25065e-07
-4.34454e-06
-1.85681e-07
-3.59118e-06
-7.53352e-07
-2.38349e-06
-1.20769e-06
-9.50499e-07
-1.43299e-06
3.34082e-07
-1.28458e-06
1.07805e-06
-7.43968e-07
1.0262e-06
5.18489e-08
4.5863e-07
5.67574e-07
4.58631e-07
1.2237e-07
-2.76897e-07
6.98135e-08
-8.31802e-08
-3.01302e-07
3.5554e-07
-1.07966e-06
9.04563e-07
-2.30997e-06
1.5332e-06
-3.91256e-06
2.14549e-06
-5.63903e-06
2.54117e-06
-7.178e-06
2.5392e-06
-8.30532e-06
2.11273e-06
-8.91102e-06
1.34436e-06
-8.94786e-06
3.61906e-07
-8.39301e-06
-7.40532e-07
-7.27759e-06
-1.86876e-06
-5.63425e-06
-2.85104e-06
-3.60614e-06
-3.4611e-06
-1.49675e-06
-3.39397e-06
1.68661e-07
-2.40938e-06
8.51284e-07
-6.30776e-07
5.22687e-07
8.9617e-07
9.81318e-07
-1.29557e-07
-1.4734e-07
-6.35514e-07
4.22776e-07
-1.62225e-06
1.34228e-06
-3.13044e-06
2.41276e-06
-5.03578e-06
3.43854e-06
-7.04148e-06
4.15119e-06
-8.83391e-06
4.33361e-06
-1.0233e-05
3.93833e-06
-1.11868e-05
3.06653e-06
-1.16876e-05
1.8451e-06
-1.16842e-05
3.58549e-07
-1.12292e-05
-1.19553e-06
-1.03027e-05
-2.79531e-06
-8.85019e-06
-4.30353e-06
-6.85147e-06
-5.45983e-06
-4.39491e-06
-5.85053e-06
-1.87847e-06
-4.92581e-06
-8.99371e-08
-2.41931e-06
2.93219e-07
5.13013e-07
1.27454e-06
-4.99491e-07
3.52151e-07
-1.55477e-06
1.47805e-06
-3.10584e-06
2.89334e-06
-5.05652e-06
4.36344e-06
-7.14912e-06
5.53113e-06
-9.0778e-06
6.07988e-06
-1.06408e-05
5.89656e-06
-1.17949e-05
5.09247e-06
-1.25681e-05
3.83975e-06
-1.29953e-05
2.27232e-06
-1.30621e-05
4.25317e-07
-1.28259e-05
-1.43175e-06
-1.22487e-05
-3.37252e-06
-1.12285e-05
-5.32371e-06
-9.63413e-06
-7.05417e-06
-7.34087e-06
-8.14378e-06
-4.38681e-06
-7.87988e-06
-1.37704e-06
-5.42908e-06
1.19264e-07
-9.83289e-07
1.3938e-06
-8.576e-07
1.20975e-06
-2.34911e-06
2.96956e-06
-4.20919e-06
4.75343e-06
-6.24484e-06
6.39908e-06
-8.17702e-06
7.46331e-06
-9.78378e-06
7.68664e-06
-1.09879e-05
7.10064e-06
-1.18153e-05
5.91995e-06
-1.23282e-05
4.35259e-06
-1.25995e-05
2.54361e-06
-1.272e-05
5.4581e-07
-1.26774e-05
-1.4743e-06
-1.24623e-05
-3.58762e-06
-1.19951e-05
-5.79091e-06
-1.10891e-05
-7.96022e-06
-9.45621e-06
-9.77666e-06
-6.798e-06
-1.05381e-05
-3.21344e-06
-9.01365e-06
-2.62142e-07
-3.93458e-06
1.13166e-06
-1.07977e-06
2.28952e-06
-2.76681e-06
4.65661e-06
-4.64903e-06
6.63565e-06
-6.4963e-06
8.24635e-06
-8.08546e-06
9.05247e-06
-9.28523e-06
8.88642e-06
-1.00907e-05
7.90611e-06
-1.05666e-05
6.39588e-06
-1.08036e-05
4.58952e-06
-1.0902e-05
2.64206e-06
-1.09838e-05
6.27596e-07
-1.10372e-05
-1.42086e-06
-1.10775e-05
-3.54735e-06
-1.10748e-05
-5.79367e-06
-1.08743e-05
-8.1607e-06
-1.01481e-05
-1.05028e-05
-8.40279e-06
-1.22835e-05
-5.22445e-06
-1.2192e-05
-1.1555e-06
-8.00353e-06
-2.38409e-08
-1.10236e-06
3.39188e-06
-2.73942e-06
6.29366e-06
-4.4267e-06
8.32292e-06
-5.95328e-06
9.77293e-06
-7.15947e-06
1.02587e-05
-7.98217e-06
9.70911e-06
-8.45811e-06
8.38206e-06
-8.67403e-06
6.6118e-06
-8.73395e-06
4.64944e-06
-8.736e-06
2.64411e-06
-8.76405e-06
6.55651e-07
-8.8376e-06
-1.34731e-06
-8.97632e-06
-3.40863e-06
-9.19105e-06
-5.57894e-06
-9.42368e-06
-7.92807e-06
-9.44103e-06
-1.04854e-05
-8.72323e-06
-1.30012e-05
-6.51473e-06
-1.44005e-05
-2.41436e-06
-1.21039e-05
-2.4382e-06
-9.28114e-07
4.32e-06
-2.3303e-06
7.69586e-06
-3.70905e-06
9.70167e-06
-4.88103e-06
1.09449e-05
-5.74514e-06
1.11228e-05
-6.28366e-06
1.02476e-05
-6.55288e-06
8.65128e-06
-6.6437e-06
6.70262e-06
-6.65301e-06
4.65875e-06
-6.6551e-06
2.64619e-06
-6.68711e-06
6.8766e-07
-6.76676e-06
-1.26765e-06
-6.91545e-06
-3.25994e-06
-7.1636e-06
-5.33078e-06
-7.52727e-06
-7.56441e-06
-7.91315e-06
-1.00996e-05
-7.90903e-06
-1.30054e-05
-6.69735e-06
-1.56122e-05
-3.57272e-06
-1.52285e-05
-6.01092e-06
-6.19413e-07
4.93941e-06
-1.67482e-06
8.75127e-06
-2.70177e-06
1.07286e-05
-3.53544e-06
1.17786e-05
-4.11993e-06
1.17073e-05
-4.46468e-06
1.05924e-05
-4.62799e-06
8.81459e-06
-4.6884e-06
6.76302e-06
-4.71897e-06
4.68932e-06
-4.7644e-06
2.69162e-06
-4.83547e-06
7.5873e-07
-4.93915e-06
-1.16398e-06
-5.08575e-06
-3.11334e-06
-5.30431e-06
-5.11222e-06
-5.64981e-06
-7.21892e-06
-6.13421e-06
-9.61515e-06
-6.53604e-06
-1.26035e-05
-6.11251e-06
-1.60357e-05
-3.91269e-06
-1.74284e-05
-9.9236e-06
-2.29781e-07
5.16919e-06
-8.85855e-07
9.40734e-06
-1.55335e-06
1.13961e-05
-2.07928e-06
1.23045e-05
-2.43548e-06
1.20635e-05
-2.64587e-06
1.08028e-05
-2.75843e-06
8.92715e-06
-2.8266e-06
6.83119e-06
-2.89563e-06
4.75835e-06
-2.98806e-06
2.78405e-06
-3.10684e-06
8.77503e-07
-3.2519e-06
-1.01891e-06
-3.42379e-06
-2.94145e-06
-3.63533e-06
-4.90068e-06
-3.93831e-06
-6.91594e-06
-4.41445e-06
-9.13902e-06
-5.00821e-06
-1.20098e-05
-5.1141e-06
-1.59298e-05
-3.55196e-06
-1.89905e-05
-1.34756e-05
1.6325e-07
5.00594e-06
-6.82503e-08
9.63884e-06
-3.99018e-07
1.17269e-05
-6.48062e-07
1.25536e-05
-8.00989e-07
1.22164e-05
-8.88758e-07
1.08905e-05
-9.50901e-07
8.9893e-06
-1.01946e-06
6.89975e-06
-1.11121e-06
4.8501e-06
-1.23386e-06
2.9067e-06
-1.38968e-06
1.03332e-06
-1.58084e-06
-8.27746e-07
-1.80631e-06
-2.71598e-06
-2.06462e-06
-4.64237e-06
-2.38436e-06
-6.5962e-06
-2.85904e-06
-8.66434e-06
-3.55109e-06
-1.13177e-05
-4.02085e-06
-1.54601e-05
-3.02281e-06
-1.99885e-05
-1.64984e-05
4.98118e-07
4.50782e-06
6.95322e-07
9.44164e-06
7.38484e-07
1.16837e-05
7.74307e-07
1.25177e-05
8.19629e-07
1.21711e-05
8.4882e-07
1.08613e-05
8.41853e-07
8.99626e-06
7.9039e-07
6.95122e-06
6.96008e-07
4.94448e-06
5.60802e-07
3.0419e-06
3.80209e-07
1.21391e-06
1.48038e-07
-5.95576e-07
-1.37854e-07
-2.43009e-06
-4.84127e-07
-4.29609e-06
-8.96072e-07
-6.18425e-06
-1.4199e-06
-8.14052e-06
-2.20284e-06
-1.05348e-05
-2.95526e-06
-1.47076e-05
-2.46169e-06
-2.04821e-05
-1.89601e-05
7.51649e-07
3.75617e-06
1.34665e-06
8.84663e-06
1.73792e-06
1.12925e-05
2.0664e-06
1.21893e-05
2.3389e-06
1.18986e-05
2.52464e-06
1.06756e-05
2.61494e-06
8.90596e-06
2.62057e-06
6.94559e-06
2.55615e-06
5.00891e-06
2.42947e-06
3.16858e-06
2.23394e-06
1.40944e-06
1.95571e-06
-3.17337e-07
1.59423e-06
-2.06862e-06
1.14442e-06
-3.84628e-06
6.01124e-07
-5.64096e-06
-8.86628e-08
-7.45073e-06
-9.62721e-07
-9.66071e-06
-1.92597e-06
-1.37444e-05
-1.92844e-06
-2.04796e-05
-2.08885e-05
8.65083e-07
2.89109e-06
1.79994e-06
7.91177e-06
2.5387e-06
1.05537e-05
3.17751e-06
1.15504e-05
3.72344e-06
1.13527e-05
4.1327e-06
1.02663e-05
4.3889e-06
8.64976e-06
4.50604e-06
6.82844e-06
4.50782e-06
5.00712e-06
4.41031e-06
3.26609e-06
4.21216e-06
1.60759e-06
3.88427e-06
1.05455e-08
3.44205e-06
-1.62639e-06
2.86229e-06
-3.26652e-06
2.1449e-06
-4.92357e-06
1.30694e-06
-6.61278e-06
2.56235e-07
-8.61001e-06
-9.67902e-07
-1.25203e-05
-1.43183e-06
-2.00157e-05
-2.23203e-05
8.0096e-07
2.09013e-06
1.94242e-06
6.77031e-06
2.98073e-06
9.51538e-06
3.95086e-06
1.05803e-05
4.82523e-06
1.04783e-05
5.53741e-06
9.55415e-06
6.04782e-06
8.13935e-06
6.35943e-06
6.51683e-06
6.49384e-06
4.87272e-06
6.47018e-06
3.28975e-06
6.2881e-06
1.78967e-06
5.94286e-06
3.55784e-07
5.40573e-06
-1.08926e-06
4.68106e-06
-2.54185e-06
3.76084e-06
-4.00335e-06
2.67328e-06
-5.52521e-06
1.37583e-06
-7.31256e-06
-1.62431e-07
-1.0982e-05
-9.19059e-07
-1.92591e-05
-2.32394e-05
5.73483e-07
1.51665e-06
1.7485e-06
5.5953e-06
3.08132e-06
8.18256e-06
4.42761e-06
9.23403e-06
5.68997e-06
9.21591e-06
6.76958e-06
8.47454e-06
7.60075e-06
7.30818e-06
8.17076e-06
5.94682e-06
8.4925e-06
4.55098e-06
8.58366e-06
3.19859e-06
8.45151e-06
1.92182e-06
8.09402e-06
7.13276e-07
7.46778e-06
-4.63021e-07
6.58938e-06
-1.66345e-06
5.44585e-06
-2.85982e-06
4.07809e-06
-4.15746e-06
2.55517e-06
-5.78964e-06
9.44715e-07
-9.37154e-06
-1.50105e-07
-1.81643e-05
-2.33895e-05
1.49785e-07
1.36686e-06
1.03123e-06
4.71385e-06
2.50227e-06
6.71152e-06
4.21839e-06
7.51791e-06
5.9352e-06
7.49911e-06
7.46533e-06
6.9444e-06
8.70596e-06
6.06756e-06
9.62734e-06
5.02544e-06
1.02248e-05
3.95351e-06
1.05108e-05
2.91265e-06
1.04915e-05
1.9411e-06
1.01731e-05
1.03162e-06
9.51253e-06
1.97583e-07
8.52746e-06
-6.78376e-07
7.21075e-06
-1.54311e-06
5.61303e-06
-2.55973e-06
3.89311e-06
-4.06972e-06
2.22969e-06
-7.70812e-06
6.48898e-07
-1.65835e-05
-2.27406e-05
-5.15606e-07
1.88247e-06
1.97602e-07
4.00065e-06
1.74625e-06
5.16287e-06
3.80243e-06
5.46173e-06
5.95106e-06
5.35047e-06
7.90653e-06
4.98893e-06
9.53222e-06
4.44188e-06
1.07869e-05
3.77076e-06
1.16532e-05
3.08724e-06
1.2148e-05
2.41778e-06
1.22758e-05
1.81329e-06
1.20569e-05
1.25054e-06
1.15134e-05
7.4107e-07
1.06191e-05
2.15953e-07
9.37807e-06
-3.02077e-07
7.8604e-06
-1.04205e-06
6.25175e-06
-2.46108e-06
4.44834e-06
-5.90471e-06
2.05214e-06
-1.41873e-05
-2.06885e-05
-4.17754e-06
6.06001e-06
-3.64121e-06
3.46431e-06
-1.25084e-06
2.77251e-06
1.54128e-06
2.66961e-06
4.27422e-06
2.61753e-06
6.80253e-06
2.46062e-06
9.01378e-06
2.23062e-06
1.08482e-05
1.93632e-06
1.2288e-05
1.64749e-06
1.33603e-05
1.34549e-06
1.40824e-05
1.09119e-06
1.44988e-05
8.3405e-07
1.45982e-05
6.41705e-07
1.43907e-05
4.23503e-07
1.38679e-05
2.20678e-07
1.30452e-05
-2.19298e-07
1.19124e-05
-1.32837e-06
1.01084e-05
-4.10065e-06
5.63624e-06
-9.71511e-06
-1.50522e-05
6.06001e-06
9.52432e-06
1.22968e-05
1.49664e-05
1.7584e-05
2.00446e-05
2.22752e-05
2.42115e-05
2.5859e-05
2.72045e-05
2.82957e-05
2.91298e-05
2.97715e-05
3.0195e-05
3.04156e-05
3.01963e-05
2.8868e-05
2.47673e-05
1.50522e-05
)
;

boundaryField
{
    movingWall
    {
        type            calculated;
        value           uniform 0;
    }
    fixedWalls
    {
        type            calculated;
        value           uniform 0;
    }
    frontAndBack
    {
        type            empty;
        value           nonuniform List<scalar> 0();
    }
}


// ************************************************************************* //
