/*--------------------------------*- C++ -*----------------------------------*\
| =========                 |                                                 |
| \\      /  F ield         | OpenFOAM: The Open Source CFD Toolbox           |
|  \\    /   O peration     | Version:  2212                                  |
|   \\  /    A nd           | Website:  www.openfoam.com                      |
|    \\/     M anipulation  |                                                 |
\*---------------------------------------------------------------------------*/
FoamFile
{
    version     2.0;
    format      ascii;
    arch        "LSB;label=32;scalar=64";
    class       surfaceScalarField;
    location    "2.63";
    object      phi;
}
// * * * * * * * * * * * * * * * * * * * * * * * * * * * * * * * * * * * * * //

dimensions      [0 3 -1 0 0 0 0];

oriented        oriented;

internalField   nonuniform List<scalar> 
760
(
1.36083e-07
-1.36082e-07
2.51565e-07
-1.15482e-07
2.59085e-07
-7.52049e-09
1.3623e-07
1.22855e-07
-1.51786e-07
2.88017e-07
-6.62225e-07
5.10438e-07
-1.42507e-06
7.62847e-07
-2.36671e-06
9.41635e-07
-3.30534e-06
9.3863e-07
-4.02214e-06
7.16804e-07
-4.35112e-06
3.28976e-07
-4.19702e-06
-1.54093e-07
-3.49515e-06
-7.01872e-07
-2.35057e-06
-1.14458e-06
-9.80804e-07
-1.36977e-06
2.56435e-07
-1.23724e-06
9.89868e-07
-7.33433e-07
9.6516e-07
2.47074e-08
4.35366e-07
5.29794e-07
4.35366e-07
9.32096e-08
-2.29292e-07
2.01715e-08
-4.24447e-08
-3.38283e-07
3.50933e-07
-1.07003e-06
8.546e-07
-2.22159e-06
1.43958e-06
-3.72927e-06
2.01812e-06
-5.37305e-06
2.40662e-06
-6.86119e-06
2.42978e-06
-7.96908e-06
2.04651e-06
-8.5794e-06
1.32713e-06
-8.64144e-06
3.91023e-07
-8.12715e-06
-6.68385e-07
-7.06696e-06
-1.76206e-06
-5.49067e-06
-2.72087e-06
-3.5356e-06
-3.32484e-06
-1.49437e-06
-3.27846e-06
1.19933e-07
-2.34774e-06
7.98263e-07
-6.53622e-07
4.98298e-07
8.29759e-07
9.33664e-07
-1.45537e-07
-8.37548e-08
-6.37759e-07
4.49778e-07
-1.56843e-06
1.2816e-06
-2.98234e-06
2.26851e-06
-4.78146e-06
3.23871e-06
-6.70209e-06
3.93874e-06
-8.44471e-06
4.14924e-06
-9.82218e-06
3.80725e-06
-1.07713e-05
2.99564e-06
-1.12793e-05
1.83512e-06
-1.13017e-05
4.13403e-07
-1.08749e-05
-1.09519e-06
-9.98754e-06
-2.64939e-06
-8.58709e-06
-4.12131e-06
-6.65268e-06
-5.25925e-06
-4.27277e-06
-5.65837e-06
-1.83258e-06
-4.78793e-06
-9.75597e-08
-2.38864e-06
2.85093e-07
4.47106e-07
1.21876e-06
-4.78724e-07
3.94969e-07
-1.47846e-06
1.44951e-06
-2.93693e-06
2.74008e-06
-4.78259e-06
4.11416e-06
-6.78935e-06
5.24547e-06
-8.66847e-06
5.81786e-06
-1.0213e-05
5.69379e-06
-1.13641e-05
4.95832e-06
-1.21423e-05
3.7738e-06
-1.25796e-05
2.27243e-06
-1.26649e-05
4.9869e-07
-1.24467e-05
-1.31337e-06
-1.18949e-05
-3.20121e-06
-1.09091e-05
-5.10711e-06
-9.3607e-06
-6.80762e-06
-7.12816e-06
-7.89091e-06
-4.2546e-06
-7.66149e-06
-1.3394e-06
-5.30384e-06
1.14698e-07
-1.007e-06
1.33345e-06
-8.03811e-07
1.19878e-06
-2.20559e-06
2.85129e-06
-3.96363e-06
4.49812e-06
-5.91264e-06
6.06317e-06
-7.79387e-06
7.12671e-06
-9.38371e-06
7.4077e-06
-1.059e-05
6.90012e-06
-1.14271e-05
5.79542e-06
-1.19518e-05
4.2985e-06
-1.22349e-05
2.55549e-06
-1.23611e-05
6.24928e-07
-1.23305e-05
-1.34404e-06
-1.21308e-05
-3.4009e-06
-1.16821e-05
-5.55577e-06
-1.08002e-05
-7.68957e-06
-9.20211e-06
-9.48895e-06
-6.60319e-06
-1.02604e-05
-3.11379e-06
-8.79324e-06
-2.57304e-07
-3.86348e-06
1.07615e-06
-1.00388e-06
2.20266e-06
-2.59181e-06
4.43922e-06
-4.38392e-06
6.29022e-06
-6.17167e-06
7.85092e-06
-7.73739e-06
8.69243e-06
-8.93931e-06
8.60963e-06
-9.7567e-06
7.71751e-06
-1.02452e-05
6.28389e-06
-1.04911e-05
4.54439e-06
-1.05941e-05
2.65849e-06
-1.06742e-05
7.05073e-07
-1.0735e-05
-1.28325e-06
-1.07858e-05
-3.35013e-06
-1.07968e-05
-5.54469e-06
-1.0612e-05
-7.87444e-06
-9.90305e-06
-1.01979e-05
-8.18561e-06
-1.19779e-05
-5.06762e-06
-1.19112e-05
-1.11893e-06
-7.81217e-06
-4.27785e-08
-1.02259e-06
3.22525e-06
-2.56862e-06
5.98526e-06
-4.18694e-06
7.90854e-06
-5.67495e-06
9.33893e-06
-6.87276e-06
9.89024e-06
-7.70392e-06
9.44079e-06
-8.19093e-06
8.20451e-06
-8.4129e-06
6.50586e-06
-8.47127e-06
4.60276e-06
-8.46609e-06
2.6533e-06
-8.48591e-06
7.24896e-07
-8.55884e-06
-1.21032e-06
-8.70517e-06
-3.2038e-06
-8.9369e-06
-5.31296e-06
-9.19212e-06
-7.61922e-06
-9.23005e-06
-1.016e-05
-8.52816e-06
-1.26797e-05
-6.3501e-06
-1.40893e-05
-2.33667e-06
-1.18256e-05
-2.37945e-06
-8.61152e-07
4.0864e-06
-2.18951e-06
7.31361e-06
-3.51812e-06
9.23715e-06
-4.666e-06
1.04868e-05
-5.52748e-06
1.07517e-05
-6.07305e-06
9.98636e-06
-6.34789e-06
8.47936e-06
-6.43723e-06
6.59519e-06
-6.43733e-06
4.60287e-06
-6.42609e-06
2.64205e-06
-6.44573e-06
7.44538e-07
-6.5172e-06
-1.13885e-06
-6.66613e-06
-3.05487e-06
-6.9276e-06
-5.05149e-06
-7.31819e-06
-7.22863e-06
-7.73646e-06
-9.74169e-06
-7.75666e-06
-1.26595e-05
-6.56152e-06
-1.52844e-05
-3.46372e-06
-1.49234e-05
-5.84317e-06
-5.74506e-07
4.66091e-06
-1.57658e-06
8.31568e-06
-2.56927e-06
1.02298e-05
-3.38741e-06
1.1305e-05
-3.97036e-06
1.13347e-05
-4.31904e-06
1.0335e-05
-4.4844e-06
8.64473e-06
-4.54138e-06
6.65217e-06
-4.56346e-06
4.62495e-06
-4.59786e-06
2.67645e-06
-4.65707e-06
8.03743e-07
-4.74844e-06
-1.04748e-06
-4.88616e-06
-2.91714e-06
-5.10584e-06
-4.83181e-06
-5.47008e-06
-6.86439e-06
-5.98939e-06
-9.22237e-06
-6.42365e-06
-1.22253e-05
-6.01479e-06
-1.56933e-05
-3.83467e-06
-1.71035e-05
-9.67783e-06
-2.13203e-07
4.87411e-06
-8.36599e-07
8.93908e-06
-1.48284e-06
1.08761e-05
-1.99904e-06
1.18212e-05
-2.35334e-06
1.1689e-05
-2.56489e-06
1.05466e-05
-2.67839e-06
8.75822e-06
-2.74559e-06
6.71937e-06
-2.8114e-06
4.69076e-06
-2.89871e-06
2.76376e-06
-3.00923e-06
9.14268e-07
-3.14135e-06
-9.15361e-07
-3.29742e-06
-2.76107e-06
-3.49662e-06
-4.63262e-06
-3.80276e-06
-6.55825e-06
-4.30511e-06
-8.72002e-06
-4.93415e-06
-1.15962e-05
-5.05885e-06
-1.55686e-05
-3.51044e-06
-1.86519e-05
-1.31883e-05
1.50662e-07
4.72345e-06
-6.72074e-08
9.15695e-06
-3.8671e-07
1.11956e-05
-6.30858e-07
1.20653e-05
-7.82477e-07
1.18406e-05
-8.70574e-07
1.06347e-05
-9.34088e-07
8.82174e-06
-1.00512e-06
6.79041e-06
-1.09927e-06
4.7849e-06
-1.2224e-06
2.88689e-06
-1.37389e-06
1.06576e-06
-1.55389e-06
-7.35361e-07
-1.76102e-06
-2.55394e-06
-1.99876e-06
-4.39488e-06
-2.30567e-06
-6.25134e-06
-2.79089e-06
-8.2348e-06
-3.51171e-06
-1.08754e-05
-3.9989e-06
-1.50814e-05
-3.0058e-06
-1.9645e-05
-1.61941e-05
4.57385e-07
4.26606e-06
6.42133e-07
8.9722e-06
6.83623e-07
1.11541e-05
7.21233e-07
1.20277e-05
7.70405e-07
1.17914e-05
8.02776e-07
1.06023e-05
7.95686e-07
8.82883e-06
7.40805e-07
6.84529e-06
6.41255e-07
4.88445e-06
5.03028e-07
3.02512e-06
3.2483e-07
1.24396e-06
1.02407e-07
-5.12939e-07
-1.68233e-07
-2.2833e-06
-4.92855e-07
-4.07025e-06
-8.83861e-07
-5.86034e-06
-1.40262e-06
-7.71603e-06
-2.20228e-06
-1.00758e-05
-2.96656e-06
-1.43171e-05
-2.46788e-06
-2.01437e-05
-1.86619e-05
6.85097e-07
3.58096e-06
1.24348e-06
8.41382e-06
1.61951e-06
1.07781e-05
1.94498e-06
1.17022e-05
2.22339e-06
1.1513e-05
2.41625e-06
1.04094e-05
2.50904e-06
8.73604e-06
2.51176e-06
6.84256e-06
2.44192e-06
4.9543e-06
2.31125e-06
3.15578e-06
2.11693e-06
1.43828e-06
1.84584e-06
-2.41848e-07
1.49786e-06
-1.93533e-06
1.06738e-06
-3.63977e-06
5.47362e-07
-5.34032e-06
-1.24751e-07
-7.04392e-06
-1.00404e-06
-9.19647e-06
-1.97264e-06
-1.33485e-05
-1.95073e-06
-2.01656e-05
-2.06127e-05
7.83008e-07
2.79795e-06
1.65525e-06
7.54157e-06
2.36072e-06
1.00726e-05
2.98705e-06
1.10759e-05
3.53446e-06
1.09656e-05
3.95112e-06
9.99277e-06
4.21302e-06
8.47414e-06
4.33138e-06
6.7242e-06
4.33137e-06
4.9543e-06
4.23185e-06
3.2553e-06
4.03357e-06
1.63656e-06
3.71576e-06
7.59588e-08
3.28268e-06
-1.50224e-06
2.71936e-06
-3.07645e-06
2.02495e-06
-4.64592e-06
1.21117e-06
-6.23014e-06
1.75307e-07
-8.16061e-06
-1.04128e-06
-1.21319e-05
-1.46693e-06
-1.974e-05
-2.20796e-05
7.19185e-07
2.07877e-06
1.77284e-06
6.48792e-06
2.75716e-06
9.08828e-06
3.69975e-06
1.01333e-05
4.56526e-06
1.01001e-05
5.28004e-06
9.27799e-06
5.79623e-06
7.95795e-06
6.11171e-06
6.40872e-06
6.24758e-06
4.81844e-06
6.22489e-06
3.27799e-06
6.04648e-06
1.81498e-06
5.7041e-06
4.18337e-07
5.17717e-06
-9.75311e-07
4.46803e-06
-2.3673e-06
3.57174e-06
-3.74964e-06
2.5193e-06
-5.17769e-06
1.25761e-06
-6.89892e-06
-2.32948e-07
-1.06414e-05
-9.71611e-07
-1.90013e-05
-2.30512e-05
5.08968e-07
1.5698e-06
1.57892e-06
5.41797e-06
2.8307e-06
7.8365e-06
4.12006e-06
8.84393e-06
5.3509e-06
8.86926e-06
6.41882e-06
8.21008e-06
7.24939e-06
7.12739e-06
7.82247e-06
5.83564e-06
8.14777e-06
4.49313e-06
8.24301e-06
3.18275e-06
8.11586e-06
1.94213e-06
7.7661e-06
7.68092e-07
7.15182e-06
-3.61033e-07
6.29268e-06
-1.50816e-06
5.17932e-06
-2.63627e-06
3.86026e-06
-3.85864e-06
2.38895e-06
-5.4276e-06
8.13134e-07
-9.06555e-06
-2.13061e-07
-1.79751e-05
-2.32643e-05
1.11007e-07
1.4588e-06
8.87031e-07
4.64194e-06
2.25735e-06
6.46619e-06
3.8871e-06
7.21418e-06
5.54323e-06
7.21313e-06
7.03888e-06
6.71442e-06
8.26289e-06
5.90338e-06
9.17761e-06
4.92092e-06
9.77294e-06
3.8978e-06
1.00603e-05
2.8954e-06
1.00439e-05
1.95856e-06
9.7314e-06
1.08056e-06
9.093e-06
2.77366e-07
8.1309e-06
-5.46063e-07
6.85763e-06
-1.363e-06
5.32516e-06
-2.32616e-06
3.68952e-06
-3.79196e-06
2.10299e-06
-7.47902e-06
5.98849e-07
-1.6471e-05
-2.26654e-05
-4.91389e-07
1.95018e-06
1.29551e-07
4.021e-06
1.54254e-06
5.0532e-06
3.46696e-06
5.28976e-06
5.51181e-06
5.16828e-06
7.39759e-06
4.82865e-06
8.9802e-06
4.32076e-06
1.02113e-05
3.68987e-06
1.10658e-05
3.04327e-06
1.15591e-05
2.40212e-06
1.16942e-05
1.82344e-06
1.1493e-05
1.28171e-06
1.097e-05
8.00378e-07
1.01175e-05
3.06493e-07
8.94631e-06
-1.91845e-07
7.51665e-06
-8.96497e-07
6.01994e-06
-2.29526e-06
4.31903e-06
-5.77811e-06
1.99768e-06
-1.41496e-05
-2.06677e-05
-4.15387e-06
6.10405e-06
-3.64811e-06
3.51524e-06
-1.35649e-06
2.76158e-06
1.31305e-06
2.62022e-06
3.93226e-06
2.54907e-06
6.36949e-06
2.39142e-06
8.51733e-06
2.17291e-06
1.03136e-05
1.89359e-06
1.17357e-05
1.62116e-06
1.28055e-05
1.33235e-06
1.35373e-05
1.09158e-06
1.39739e-05
8.45157e-07
1.41083e-05
6.65971e-07
1.3959e-05
4.5581e-07
1.35036e-05
2.63554e-07
1.27573e-05
-1.502e-07
1.17319e-05
-1.26989e-06
1.0028e-05
-4.07417e-06
5.60295e-06
-9.72462e-06
-1.50648e-05
6.10405e-06
9.61929e-06
1.23809e-05
1.50011e-05
1.75502e-05
1.99416e-05
2.21145e-05
2.40081e-05
2.56293e-05
2.69616e-05
2.80532e-05
2.88983e-05
2.95643e-05
3.00201e-05
3.02837e-05
3.01335e-05
2.88636e-05
2.47894e-05
1.50648e-05
)
;

boundaryField
{
    movingWall
    {
        type            calculated;
        value           uniform 0;
    }
    fixedWalls
    {
        type            calculated;
        value           uniform 0;
    }
    frontAndBack
    {
        type            empty;
        value           nonuniform List<scalar> 0();
    }
}


// ************************************************************************* //
