/*--------------------------------*- C++ -*----------------------------------*\
| =========                 |                                                 |
| \\      /  F ield         | OpenFOAM: The Open Source CFD Toolbox           |
|  \\    /   O peration     | Version:  2212                                  |
|   \\  /    A nd           | Website:  www.openfoam.com                      |
|    \\/     M anipulation  |                                                 |
\*---------------------------------------------------------------------------*/
FoamFile
{
    version     2.0;
    format      ascii;
    arch        "LSB;label=32;scalar=64";
    class       volScalarField;
    location    "1.96";
    object      p;
}
// * * * * * * * * * * * * * * * * * * * * * * * * * * * * * * * * * * * * * //

dimensions      [0 2 -2 0 0 0 0];

internalField   nonuniform List<scalar> 
400
(
3.57811e-08
-0.000125479
-0.000405166
-0.000803346
-0.00130277
-0.00186474
-0.00238443
-0.00269068
-0.00261386
-0.00201453
-0.000788434
0.00107008
0.00333303
0.00533309
0.00635155
0.00603695
0.00456213
0.0030299
0.00209211
0.00198514
0.000117783
-2.21967e-05
-0.000244542
-0.000543973
-0.000921544
-0.00139738
-0.00196734
-0.00253184
-0.00286447
-0.00267413
-0.00173056
-1.61978e-05
0.00213151
0.00412817
0.00525358
0.0051011
0.00386052
0.00238317
0.00165877
0.00167819
0.000407306
0.000218476
-1.82034e-05
-0.000370573
-0.000933132
-0.001796
-0.002951
-0.00422505
-0.00527816
-0.00568902
-0.0051354
-0.00361793
-0.00143094
0.000901227
0.00266799
0.00328686
0.00272054
0.00164499
0.000789453
0.00072833
0.000765187
0.000474217
0.00012788
-0.000506334
-0.00163376
-0.00337071
-0.00561395
-0.00801902
-0.010105
-0.0113731
-0.0114733
-0.0103764
-0.00826605
-0.00551254
-0.00271705
-0.000546571
0.000538643
0.000553135
-7.50875e-05
-0.000671502
0.000867143
0.000465954
-0.000128874
-0.00133147
-0.0034089
-0.00640503
-0.0100334
-0.0137496
-0.0169632
-0.019189
-0.0201174
-0.0196131
-0.0177406
-0.0147201
-0.0109394
-0.00697084
-0.00356308
-0.00144963
-0.000979057
-0.00261775
0.000422077
-0.000124134
-0.00110509
-0.00309376
-0.00633724
-0.010715
-0.0156827
-0.0205114
-0.0245716
-0.0274591
-0.0289697
-0.0289761
-0.0274791
-0.0245963
-0.0204631
-0.0153113
-0.00973316
-0.00501882
-0.00296206
-0.00497868
-0.000775313
-0.00148401
-0.00291881
-0.00574296
-0.0101015
-0.0156496
-0.0215913
-0.0270844
-0.0315346
-0.0346519
-0.036356
-0.0366283
-0.0354868
-0.0329876
-0.029113
-0.0237622
-0.0170684
-0.0102162
-0.00611653
-0.00640295
-0.00271592
-0.00356281
-0.00541727
-0.00893535
-0.0141341
-0.0204529
-0.026914
-0.0326474
-0.0371511
-0.0402561
-0.0419694
-0.0423434
-0.0414348
-0.0392902
-0.0358694
-0.0309452
-0.024259
-0.0163258
-0.00978758
-0.00669517
-0.00515147
-0.00607011
-0.00822818
-0.0121928
-0.0178763
-0.024564
-0.031185
-0.0369037
-0.0413196
-0.0443505
-0.0460455
-0.0464701
-0.0456863
-0.0437536
-0.0406982
-0.0363659
-0.0303225
-0.0223926
-0.0141811
-0.00829929
-0.00769918
-0.00860452
-0.0109133
-0.0150601
-0.0208947
-0.0276391
-0.0342084
-0.0398198
-0.0441439
-0.047139
-0.0488535
-0.049327
-0.0485985
-0.0467418
-0.0438683
-0.0399833
-0.0347453
-0.0275704
-0.0192622
-0.0119694
-0.00998927
-0.0108111
-0.0131096
-0.0172026
-0.0229161
-0.0294991
-0.0359126
-0.0414151
-0.0456962
-0.0487068
-0.0504683
-0.0509869
-0.0502731
-0.0484018
-0.0455541
-0.0419008
-0.0373572
-0.0311988
-0.0237861
-0.0162871
-0.0117853
-0.0124499
-0.0145977
-0.0184217
-0.0237832
-0.0300339
-0.0362338
-0.0416605
-0.045961
-0.0490334
-0.0508575
-0.0514103
-0.0506778
-0.0487298
-0.0457993
-0.0421914
-0.0381423
-0.032868
-0.0265298
-0.0193086
-0.0130296
-0.0134413
-0.0152518
-0.0186128
-0.0234329
-0.0292188
-0.0351625
-0.0405405
-0.0449134
-0.0480887
-0.0499874
-0.0505598
-0.0497777
-0.0477225
-0.0446447
-0.0409148
-0.037147
-0.0323883
-0.0269265
-0.0199379
-0.013756
-0.0138432
-0.0151106
-0.0177678
-0.0218557
-0.027065
-0.0327135
-0.0380585
-0.0425508
-0.0458791
-0.0478857
-0.048483
-0.0476494
-0.0454538
-0.0421838
-0.0382874
-0.03445
-0.0298289
-0.0252785
-0.0178929
-0.0140432
-0.0137852
-0.0143167
-0.0160199
-0.0191908
-0.0237131
-0.0290192
-0.0343369
-0.0389929
-0.042537
-0.044713
-0.0453819
-0.0445081
-0.0421574
-0.0386606
-0.0344945
-0.0303623
-0.0256988
-0.0223052
-0.013038
-0.014007
-0.0134473
-0.0130005
-0.0135059
-0.0156123
-0.0193726
-0.0243091
-0.0296079
-0.0344722
-0.0383029
-0.0407318
-0.0415518
-0.0407192
-0.0382554
-0.0345201
-0.0299844
-0.0254018
-0.0205237
-0.0177631
-0.00394822
-0.0137354
-0.0129583
-0.0112962
-0.0104949
-0.0115068
-0.014528
-0.0191261
-0.0244303
-0.0295416
-0.0337235
-0.0364969
-0.0375614
-0.0368463
-0.0343971
-0.0304391
-0.0253761
-0.0199119
-0.0139334
-0.00866733
0.0141818
-0.0141467
-0.0124997
-0.00911207
-0.00701842
-0.0071216
-0.00961931
-0.014028
-0.019411
-0.0248226
-0.0294194
-0.0326471
-0.0341064
-0.0336703
-0.0312766
-0.0270865
-0.0211583
-0.0136855
-0.00338979
0.0125901
0.0534122
-0.0118547
-0.0123421
-0.0073037
-0.00388411
-0.00336899
-0.00567015
-0.0100967
-0.0156484
-0.0213862
-0.0263922
-0.0300974
-0.0320238
-0.0320143
-0.029785
-0.0251799
-0.0173604
-0.00512883
0.0163806
0.0554078
0.125167
-0.0295754
-0.0116565
-0.00282483
0.000368819
0.000241749
-0.00242535
-0.00709987
-0.0129065
-0.0189249
-0.0242289
-0.0282367
-0.0304608
-0.0307047
-0.0285174
-0.0232224
-0.0126793
0.00733792
0.047074
0.11792
0.221602
)
;

boundaryField
{
    movingWall
    {
        type            zeroGradient;
    }
    fixedWalls
    {
        type            zeroGradient;
    }
    frontAndBack
    {
        type            empty;
    }
}


// ************************************************************************* //
