/*--------------------------------*- C++ -*----------------------------------*\
| =========                 |                                                 |
| \\      /  F ield         | OpenFOAM: The Open Source CFD Toolbox           |
|  \\    /   O peration     | Version:  2212                                  |
|   \\  /    A nd           | Website:  www.openfoam.com                      |
|    \\/     M anipulation  |                                                 |
\*---------------------------------------------------------------------------*/
FoamFile
{
    version     2.0;
    format      ascii;
    arch        "LSB;label=32;scalar=64";
    class       surfaceScalarField;
    location    "1.13";
    object      phi;
}
// * * * * * * * * * * * * * * * * * * * * * * * * * * * * * * * * * * * * * //

dimensions      [0 3 -1 0 0 0 0];

oriented        oriented;

internalField   nonuniform List<scalar> 
760
(
-5.80012e-09
5.80054e-09
-7.2388e-08
6.65878e-08
-1.72963e-07
1.00575e-07
-2.9868e-07
1.25716e-07
-4.62003e-07
1.63323e-07
-6.81117e-07
2.19113e-07
-9.68339e-07
2.87222e-07
-1.31768e-06
3.49345e-07
-1.69163e-06
3.73943e-07
-2.0172e-06
3.25572e-07
-2.20252e-06
1.85318e-07
-2.16853e-06
-3.39853e-08
-1.84926e-06
-3.19274e-07
-1.2901e-06
-5.59159e-07
-6.12323e-07
-6.77775e-07
1.22676e-09
-6.1355e-07
3.8362e-07
-3.82394e-07
4.13258e-07
-2.96372e-08
1.98176e-07
2.15083e-07
1.98176e-07
-1.15737e-07
1.21538e-07
-3.70318e-07
3.21169e-07
-6.97068e-07
4.27325e-07
-1.08582e-06
5.14467e-07
-1.55344e-06
6.30945e-07
-2.11554e-06
7.81211e-07
-2.76522e-06
9.36899e-07
-3.45706e-06
1.04119e-06
-4.10221e-06
1.01909e-06
-4.58265e-06
8.06011e-07
-4.78698e-06
3.89649e-07
-4.63508e-06
-1.85882e-07
-4.08273e-06
-8.71631e-07
-3.1658e-06
-1.47608e-06
-2.00723e-06
-1.83635e-06
-8.27448e-07
-1.79333e-06
5.55933e-08
-1.26543e-06
4.17971e-07
-3.92015e-07
2.66152e-07
3.66901e-07
4.64328e-07
-2.3578e-07
3.57318e-07
-6.70751e-07
7.5614e-07
-1.20035e-06
9.56926e-07
-1.81054e-06
1.12465e-06
-2.5155e-06
1.33591e-06
-3.32232e-06
1.58803e-06
-4.21301e-06
1.82759e-06
-5.134e-06
1.96218e-06
-5.99146e-06
1.87656e-06
-6.65775e-06
1.4723e-06
-7.00091e-06
7.32807e-07
-6.9371e-06
-2.49696e-07
-6.41796e-06
-1.39077e-06
-5.44301e-06
-2.45103e-06
-4.067e-06
-3.21236e-06
-2.44601e-06
-3.41432e-06
-9.10259e-07
-2.80118e-06
5.75605e-08
-1.35983e-06
2.18106e-07
2.06356e-07
6.82434e-07
-3.33681e-07
6.90999e-07
-9.13461e-07
1.33592e-06
-1.60044e-06
1.6439e-06
-2.37753e-06
1.90174e-06
-3.26192e-06
2.22031e-06
-4.26823e-06
2.59434e-06
-5.39055e-06
2.9499e-06
-6.57844e-06
3.15007e-06
-7.71507e-06
3.01319e-06
-8.63517e-06
2.3924e-06
-9.18457e-06
1.28221e-06
-9.26716e-06
-1.67113e-07
-8.90207e-06
-1.75586e-06
-8.0433e-06
-3.3098e-06
-6.65233e-06
-4.60333e-06
-4.75002e-06
-5.31663e-06
-2.55148e-06
-4.99973e-06
-6.42688e-07
-3.26863e-06
1.47696e-07
-5.84028e-07
8.3013e-07
-3.97457e-07
1.08846e-06
-1.07366e-06
2.01212e-06
-1.86774e-06
2.43798e-06
-2.76406e-06
2.79806e-06
-3.79087e-06
3.24712e-06
-4.9775e-06
3.78096e-06
-6.32017e-06
4.29257e-06
-7.7352e-06
4.56511e-06
-9.04625e-06
4.32424e-06
-1.00667e-05
3.41285e-06
-1.07066e-05
1.92207e-06
-1.08423e-05
-3.14156e-08
-1.06689e-05
-1.92924e-06
-1.00767e-05
-3.90201e-06
-8.96655e-06
-5.71344e-06
-7.20268e-06
-7.0805e-06
-4.71677e-06
-7.48564e-06
-1.89553e-06
-6.08986e-06
-6.10513e-08
-2.41851e-06
7.69079e-07
-4.2022e-07
1.50868e-06
-1.13908e-06
2.73098e-06
-1.98749e-06
3.28639e-06
-2.9518e-06
3.76238e-06
-4.06711e-06
4.36243e-06
-5.35928e-06
5.07313e-06
-6.78989e-06
5.72318e-06
-8.21533e-06
5.99055e-06
-9.43179e-06
5.5407e-06
-1.03001e-05
4.2812e-06
-1.08049e-05
2.4268e-06
-1.10253e-05
1.89007e-07
-1.09705e-05
-1.98403e-06
-1.06879e-05
-4.18462e-06
-1.0067e-05
-6.33437e-06
-8.86978e-06
-8.27769e-06
-6.77947e-06
-9.57595e-06
-3.69229e-06
-9.17704e-06
-6.29137e-07
-5.48166e-06
1.39943e-07
-3.98382e-07
1.90706e-06
-1.10163e-06
3.43423e-06
-1.94268e-06
4.12744e-06
-2.90089e-06
4.72059e-06
-4.00031e-06
5.46185e-06
-5.24046e-06
6.31328e-06
-6.54117e-06
7.02389e-06
-7.73732e-06
7.1867e-06
-8.66504e-06
6.46842e-06
-9.2601e-06
4.87626e-06
-9.56781e-06
2.7345e-06
-9.73276e-06
3.53958e-07
-9.74605e-06
-1.97074e-06
-9.68886e-06
-4.24181e-06
-9.5454e-06
-6.47783e-06
-9.10232e-06
-8.72076e-06
-7.90016e-06
-1.07781e-05
-5.39623e-06
-1.1681e-05
-1.66238e-06
-9.21551e-06
-1.52244e-06
-3.32552e-07
2.23961e-06
-9.59723e-07
4.06141e-06
-1.72393e-06
4.89164e-06
-2.58593e-06
5.5826e-06
-3.54541e-06
6.42133e-06
-4.57711e-06
7.34498e-06
-5.5921e-06
8.03889e-06
-6.45901e-06
8.0536e-06
-7.08303e-06
7.09244e-06
-7.45434e-06
5.24758e-06
-7.629e-06
2.90916e-06
-7.70929e-06
4.34245e-07
-7.717e-06
-1.96303e-06
-7.7382e-06
-4.22062e-06
-7.84915e-06
-6.36687e-06
-7.97366e-06
-8.59626e-06
-7.67307e-06
-1.10787e-05
-6.15057e-06
-1.32035e-05
-2.81973e-06
-1.25463e-05
-4.34217e-06
-2.30495e-07
2.47011e-06
-7.26738e-07
4.55765e-06
-1.34983e-06
5.51473e-06
-2.0365e-06
6.26927e-06
-2.76055e-06
7.14537e-06
-3.4894e-06
8.07383e-06
-4.16211e-06
8.71159e-06
-4.71143e-06
8.60292e-06
-5.10973e-06
7.49074e-06
-5.37255e-06
5.5104e-06
-5.53159e-06
3.06821e-06
-5.61941e-06
5.22063e-07
-5.65486e-06
-1.92758e-06
-5.69475e-06
-4.18073e-06
-5.85414e-06
-6.20748e-06
-6.20881e-06
-8.2416e-06
-6.48752e-06
-1.08e-05
-5.87561e-06
-1.38154e-05
-3.53183e-06
-1.48901e-05
-7.874e-06
-1.0886e-07
2.57897e-06
-4.33468e-07
4.88226e-06
-8.69981e-07
5.95125e-06
-1.33117e-06
6.73046e-06
-1.76871e-06
7.58291e-06
-2.1568e-06
8.46192e-06
-2.4822e-06
9.03699e-06
-2.74624e-06
8.86696e-06
-2.97233e-06
7.71683e-06
-3.18056e-06
5.71863e-06
-3.37299e-06
3.26064e-06
-3.53589e-06
6.84959e-07
-3.65526e-06
-1.8082e-06
-3.75638e-06
-4.07961e-06
-3.94167e-06
-6.02219e-06
-4.37305e-06
-7.81021e-06
-4.98507e-06
-1.0188e-05
-5.04221e-06
-1.37582e-05
-3.42333e-06
-1.6509e-05
-1.12973e-05
1.85566e-08
2.56041e-06
-1.21784e-07
5.0226e-06
-3.51904e-07
6.18137e-06
-5.69608e-07
6.94816e-06
-7.09878e-07
7.72318e-06
-7.58016e-07
8.51006e-06
-7.47443e-07
9.02642e-06
-7.44449e-07
8.86397e-06
-7.91232e-07
7.76361e-06
-9.10713e-07
5.83811e-06
-1.10013e-06
3.45006e-06
-1.3322e-06
9.17028e-07
-1.57069e-06
-1.56972e-06
-1.81425e-06
-3.83605e-06
-2.11283e-06
-5.72361e-06
-2.62854e-06
-7.2945e-06
-3.45506e-06
-9.36144e-06
-3.99776e-06
-1.32156e-05
-2.9743e-06
-1.75325e-05
-1.42716e-05
1.17416e-07
2.44299e-06
1.53549e-07
4.98646e-06
1.29583e-07
6.20533e-06
1.47092e-07
6.93065e-06
2.7935e-07
7.59092e-06
5.43977e-07
8.24543e-06
8.91912e-07
8.67848e-06
1.21251e-06
8.54337e-06
1.39974e-06
7.57639e-06
1.40644e-06
5.83141e-06
1.25197e-06
3.60452e-06
9.70294e-07
1.19871e-06
6.05823e-07
-1.20525e-06
1.84169e-07
-3.4144e-06
-3.51079e-07
-5.18837e-06
-1.0618e-06
-6.58378e-06
-2.07405e-06
-8.34919e-06
-2.97553e-06
-1.23141e-05
-2.48502e-06
-1.8023e-05
-1.67566e-05
1.7924e-07
2.26375e-06
3.52782e-07
4.81292e-06
4.99061e-07
6.05905e-06
7.08769e-07
6.72094e-06
1.06682e-06
7.23287e-06
1.5994e-06
7.71285e-06
2.24783e-06
8.03005e-06
2.87512e-06
7.91607e-06
3.32658e-06
7.12493e-06
3.51941e-06
5.63858e-06
3.4551e-06
3.66883e-06
3.16503e-06
1.48877e-06
2.66445e-06
-7.04662e-07
2.01735e-06
-2.76731e-06
1.24755e-06
-4.41856e-06
3.10024e-07
-5.64626e-06
-8.7897e-07
-7.16019e-06
-2.05845e-06
-1.11346e-05
-2.00958e-06
-1.80718e-05
-1.87662e-05
1.91076e-07
2.07268e-06
4.47967e-07
4.55603e-06
7.2782e-07
5.7792e-06
1.09478e-06
6.35398e-06
1.62054e-06
6.70711e-06
2.33428e-06
6.99911e-06
3.18842e-06
7.17591e-06
4.05048e-06
7.05401e-06
4.74566e-06
6.42976e-06
5.14804e-06
5.23619e-06
5.22053e-06
3.59635e-06
4.98372e-06
1.72558e-06
4.41701e-06
-1.3796e-07
3.61346e-06
-1.96375e-06
2.61995e-06
-3.42506e-06
1.48812e-06
-4.51443e-06
1.22181e-07
-5.79425e-06
-1.26255e-06
-9.74987e-06
-1.5802e-06
-1.77542e-05
-2.03464e-05
1.42477e-07
1.9302e-06
4.06299e-07
4.29221e-06
7.6327e-07
5.42223e-06
1.24891e-06
5.86834e-06
1.89792e-06
6.05811e-06
2.72522e-06
6.17181e-06
3.69406e-06
6.20707e-06
4.69555e-06
6.05253e-06
5.56407e-06
5.56124e-06
6.1479e-06
4.65237e-06
6.36253e-06
3.38172e-06
6.19157e-06
1.89654e-06
5.68001e-06
3.73602e-07
4.7937e-06
-1.07744e-06
3.66191e-06
-2.29327e-06
2.37884e-06
-3.23135e-06
9.30989e-07
-4.3464e-06
-5.42435e-07
-8.27644e-06
-1.16502e-06
-1.71316e-05
-2.15114e-05
3.55085e-08
1.89469e-06
2.44033e-07
4.08369e-06
6.38147e-07
5.02812e-06
1.20814e-06
5.29834e-06
1.93997e-06
5.32628e-06
2.82869e-06
5.28308e-06
3.83997e-06
5.1958e-06
4.88965e-06
5.00285e-06
5.84096e-06
4.60992e-06
6.54523e-06
3.9481e-06
6.89107e-06
3.03587e-06
6.83229e-06
1.95532e-06
6.36811e-06
8.37786e-07
5.51307e-06
-2.22399e-07
4.3534e-06
-1.1336e-06
3.02968e-06
-1.90763e-06
1.61808e-06
-2.9348e-06
8.77691e-08
-6.74614e-06
-6.24965e-07
-1.64189e-05
-2.21364e-05
-2.19021e-07
2.11371e-06
-2.36077e-07
4.10074e-06
1.85575e-07
4.60646e-06
8.79736e-07
4.60418e-06
1.73992e-06
4.4661e-06
2.71194e-06
4.31106e-06
3.75779e-06
4.14995e-06
4.81841e-06
3.94223e-06
5.79005e-06
3.63828e-06
6.55173e-06
3.18642e-06
6.98764e-06
2.59996e-06
7.03563e-06
1.90733e-06
6.66599e-06
1.20743e-06
5.9095e-06
5.34086e-07
4.84004e-06
-6.41399e-08
3.62042e-06
-6.88016e-07
2.42789e-06
-1.74226e-06
1.27124e-06
-5.58949e-06
2.21494e-07
-1.53691e-05
-2.19149e-05
-3.63497e-07
2.47721e-06
-4.83833e-07
4.22108e-06
-1.41362e-07
4.26399e-06
5.42692e-07
3.92013e-06
1.4254e-06
3.58339e-06
2.41331e-06
3.32315e-06
3.45216e-06
3.1111e-06
4.49686e-06
2.89754e-06
5.46144e-06
2.6737e-06
6.26154e-06
2.38632e-06
6.79658e-06
2.06492e-06
7.01887e-06
1.68504e-06
6.8973e-06
1.329e-06
6.46224e-06
9.69149e-07
5.74715e-06
6.50954e-07
4.97485e-06
8.42784e-08
4.2598e-06
-1.02721e-06
3.32774e-06
-4.65743e-06
1.59125e-06
-1.36326e-05
-2.03237e-05
-3.94716e-06
6.42437e-06
-3.62222e-06
3.89614e-06
-2.09068e-06
2.73245e-06
-4.81908e-07
2.31136e-06
1.05074e-06
2.05074e-06
2.54058e-06
1.83332e-06
3.98938e-06
1.66229e-06
5.38604e-06
1.50087e-06
6.68584e-06
1.37391e-06
7.85086e-06
1.22129e-06
8.82179e-06
1.094e-06
9.57458e-06
9.32248e-07
1.00768e-05
8.26828e-07
1.03622e-05
6.83705e-07
1.04558e-05
5.5735e-07
1.03159e-05
2.24138e-07
1.004e-05
-7.51268e-07
9.17043e-06
-3.78787e-06
5.2585e-06
-9.72069e-06
-1.50652e-05
6.42437e-06
1.03205e-05
1.3053e-05
1.53643e-05
1.74151e-05
1.92484e-05
2.09107e-05
2.24115e-05
2.37854e-05
2.50067e-05
2.61007e-05
2.7033e-05
2.78598e-05
2.85435e-05
2.91009e-05
2.9325e-05
2.85737e-05
2.47859e-05
1.50652e-05
)
;

boundaryField
{
    movingWall
    {
        type            calculated;
        value           uniform 0;
    }
    fixedWalls
    {
        type            calculated;
        value           uniform 0;
    }
    frontAndBack
    {
        type            empty;
        value           nonuniform List<scalar> 0();
    }
}


// ************************************************************************* //
