/*--------------------------------*- C++ -*----------------------------------*\
| =========                 |                                                 |
| \\      /  F ield         | OpenFOAM: The Open Source CFD Toolbox           |
|  \\    /   O peration     | Version:  2212                                  |
|   \\  /    A nd           | Website:  www.openfoam.com                      |
|    \\/     M anipulation  |                                                 |
\*---------------------------------------------------------------------------*/
FoamFile
{
    version     2.0;
    format      ascii;
    arch        "LSB;label=32;scalar=64";
    class       volVectorField;
    location    "0.715";
    object      U;
}
// * * * * * * * * * * * * * * * * * * * * * * * * * * * * * * * * * * * * * //

dimensions      [0 1 -1 0 0 0 0];

internalField   nonuniform List<vector> 
400
(
(-0.000243709 0.000187299 0)
(-0.00156836 0.000663838 0)
(-0.00392176 0.000856583 0)
(-0.00651562 0.000922454 0)
(-0.00923284 0.00097913 0)
(-0.0121038 0.00106092 0)
(-0.0151608 0.00116593 0)
(-0.0183955 0.00127395 0)
(-0.0217167 0.00134443 0)
(-0.0248973 0.00130923 0)
(-0.0275264 0.00107499 0)
(-0.0289969 0.000548609 0)
(-0.0285573 -0.000317588 0)
(-0.0256065 -0.00142897 0)
(-0.0201424 -0.00243347 0)
(-0.0130242 -0.00288404 0)
(-0.00588004 -0.00247727 0)
(-0.00049049 -0.00133121 0)
(0.00168135 -1.55934e-05 0)
(0.000901554 0.000722506 0)
(-0.000912123 0.00168364 0)
(-0.00418632 0.00371375 0)
(-0.00928984 0.00454983 0)
(-0.0148892 0.00490049 0)
(-0.0207446 0.00516558 0)
(-0.0268502 0.00545734 0)
(-0.0331725 0.0057489 0)
(-0.0395903 0.0059328 0)
(-0.0458267 0.00582378 0)
(-0.0513819 0.00515374 0)
(-0.0554988 0.00360658 0)
(-0.057215 0.00092935 0)
(-0.0554931 -0.00287687 0)
(-0.0495532 -0.00726391 0)
(-0.0395187 -0.0109933 0)
(-0.0267855 -0.0125272 0)
(-0.0138834 -0.0108558 0)
(-0.00377351 -0.00642808 0)
(0.00113927 -0.00123256 0)
(0.00103065 0.00185474 0)
(-0.00132497 0.00470986 0)
(-0.00578603 0.00914778 0)
(-0.012502 0.0109595 0)
(-0.0197969 0.0117726 0)
(-0.0273847 0.0123399 0)
(-0.0352419 0.0128614 0)
(-0.0432926 0.0132604 0)
(-0.0513588 0.013296 0)
(-0.0590963 0.012586 0)
(-0.0659309 0.0106205 0)
(-0.0710243 0.00683885 0)
(-0.0733047 0.000835984 0)
(-0.0715353 -0.00727781 0)
(-0.0646443 -0.0164575 0)
(-0.052437 -0.0243233 0)
(-0.0362413 -0.0277473 0)
(-0.019024 -0.0244425 0)
(-0.0049389 -0.0150478 0)
(0.00184478 -0.0037665 0)
(0.00146731 0.00302592 0)
(-0.00151421 0.00835362 0)
(-0.00658542 0.0155785 0)
(-0.0141633 0.0184689 0)
(-0.0223544 0.0197804 0)
(-0.0308642 0.0206703 0)
(-0.0396907 0.0214329 0)
(-0.0487816 0.0219438 0)
(-0.0580014 0.0218369 0)
(-0.0670791 0.0205507 0)
(-0.0755472 0.0173496 0)
(-0.0826666 0.0114043 0)
(-0.0873429 0.00204172 0)
(-0.0880707 -0.010754 0)
(-0.0829919 -0.0257683 0)
(-0.0707555 -0.0394421 0)
(-0.0519428 -0.0465687 0)
(-0.029347 -0.0425666 0)
(-0.0083132 -0.027071 0)
(0.00293619 -0.00705975 0)
(0.00230581 0.00518386 0)
(-0.00155449 0.0122647 0)
(-0.00683436 0.0224715 0)
(-0.0147606 0.026505 0)
(-0.0233436 0.0283549 0)
(-0.0323075 0.0296282 0)
(-0.0417084 0.0307392 0)
(-0.0515842 0.0315454 0)
(-0.0619414 0.031598 0)
(-0.0727272 0.03021 0)
(-0.0837924 0.0264685 0)
(-0.0947516 0.0192326 0)
(-0.104638 0.00725786 0)
(-0.1115 -0.0101932 0)
(-0.111986 -0.0320965 0)
(-0.102673 -0.0541748 0)
(-0.0829574 -0.0686367 0)
(-0.0544059 -0.0675748 0)
(-0.0219784 -0.0470292 0)
(0.00151771 -0.0139994 0)
(0.00339879 0.00814018 0)
(-0.00148968 0.0161886 0)
(-0.00669009 0.0294663 0)
(-0.0145986 0.0347107 0)
(-0.0232256 0.0371704 0)
(-0.0323305 0.0389456 0)
(-0.0420523 0.040617 0)
(-0.0525734 0.0420844 0)
(-0.0641305 0.0428984 0)
(-0.0770321 0.0423557 0)
(-0.0917036 0.0394893 0)
(-0.108482 0.0328358 0)
(-0.126624 0.0200389 0)
(-0.14288 -0.00159861 0)
(-0.151562 -0.0321728 0)
(-0.147506 -0.066368 0)
(-0.129631 -0.0931291 0)
(-0.0974607 -0.10128 0)
(-0.0529514 -0.0810035 0)
(-0.00745019 -0.0307966 0)
(0.00460535 0.00981174 0)
(-0.00134435 0.0199207 0)
(-0.00624292 0.0362667 0)
(-0.013846 0.0427852 0)
(-0.0222292 0.0459413 0)
(-0.0311879 0.0483658 0)
(-0.0409473 0.0508694 0)
(-0.0518589 0.0534851 0)
(-0.0644413 0.0558946 0)
(-0.0794466 0.0575517 0)
(-0.0980193 0.0575718 0)
(-0.121393 0.0539408 0)
(-0.148722 0.0420428 0)
(-0.17408 0.0154983 0)
(-0.188998 -0.0273608 0)
(-0.189784 -0.0773116 0)
(-0.176904 -0.120041 0)
(-0.147097 -0.143644 0)
(-0.098087 -0.132447 0)
(-0.0330732 -0.0697378 0)
(0.00392771 0.00507626 0)
(-0.00113475 0.0232975 0)
(-0.00554809 0.042627 0)
(-0.0125945 0.050461 0)
(-0.0204531 0.054382 0)
(-0.028935 0.0575784 0)
(-0.0383236 0.0611621 0)
(-0.0491115 0.0654069 0)
(-0.0620632 0.0702809 0)
(-0.0782771 0.0755372 0)
(-0.0993763 0.0802355 0)
(-0.127043 0.0809346 0)
(-0.159568 0.069409 0)
(-0.188103 0.0358001 0)
(-0.203113 -0.0206135 0)
(-0.206612 -0.0857601 0)
(-0.201025 -0.144159 0)
(-0.181026 -0.187071 0)
(-0.140995 -0.195688 0)
(-0.0762232 -0.13947 0)
(-0.00306095 -0.0142383 0)
(-0.000877432 0.0261876 0)
(-0.00465568 0.0483364 0)
(-0.0109197 0.0574835 0)
(-0.0179657 0.0621781 0)
(-0.0255798 0.0661743 0)
(-0.0340348 0.0709422 0)
(-0.0438571 0.077079 0)
(-0.0558743 0.084925 0)
(-0.0711889 0.0944812 0)
(-0.0913006 0.104238 0)
(-0.117615 0.108457 0)
(-0.147492 0.0956493 0)
(-0.171655 0.0554567 0)
(-0.182513 -0.00970602 0)
(-0.186808 -0.0844842 0)
(-0.187698 -0.153514 0)
(-0.180797 -0.213838 0)
(-0.158548 -0.249997 0)
(-0.111336 -0.220763 0)
(-0.0215073 -0.0575248 0)
(-0.000596709 0.0284958 0)
(-0.00363773 0.0532218 0)
(-0.00893601 0.0636138 0)
(-0.0148993 0.0689924 0)
(-0.0212373 0.0736557 0)
(-0.0281226 0.0794469 0)
(-0.0359565 0.0872858 0)
(-0.0453642 0.0978208 0)
(-0.0570613 0.111085 0)
(-0.0719727 0.124681 0)
(-0.0912043 0.130789 0)
(-0.112288 0.116198 0)
(-0.127769 0.0716545 0)
(-0.134738 0.00248162 0)
(-0.139059 -0.0744424 0)
(-0.143394 -0.146708 0)
(-0.147252 -0.215752 0)
(-0.141858 -0.277655 0)
(-0.11569 -0.291065 0)
(-0.0370162 -0.142921 0)
(-0.000329062 0.0301818 0)
(-0.00260563 0.057169 0)
(-0.0068334 0.0686508 0)
(-0.0115123 0.0745032 0)
(-0.0162365 0.0795148 0)
(-0.0210091 0.0858617 0)
(-0.0259879 0.0946936 0)
(-0.0314276 0.1068 0)
(-0.0375167 0.122095 0)
(-0.044636 0.137562 0)
(-0.0540952 0.14429 0)
(-0.0649849 0.128707 0)
(-0.0729997 0.0825895 0)
(-0.0772071 0.0121805 0)
(-0.0816559 -0.063756 0)
(-0.0892932 -0.135031 0)
(-0.101303 -0.203865 0)
(-0.108501 -0.279934 0)
(-0.101036 -0.335886 0)
(-0.0326675 -0.236942 0)
(-0.000126166 0.0312907 0)
(-0.00172083 0.060177 0)
(-0.00489138 0.0725092 0)
(-0.00819975 0.0785105 0)
(-0.011124 0.0833945 0)
(-0.0134936 0.0896032 0)
(-0.0152089 0.0983901 0)
(-0.0161646 0.110558 0)
(-0.0160616 0.125786 0)
(-0.0148728 0.141262 0)
(-0.0142535 0.148263 0)
(-0.0150721 0.133753 0)
(-0.0166457 0.0894898 0)
(-0.0198956 0.0215358 0)
(-0.0267506 -0.0527641 0)
(-0.0375534 -0.121722 0)
(-0.0563926 -0.186612 0)
(-0.0731092 -0.267744 0)
(-0.0826775 -0.355134 0)
(-0.0209301 -0.300961 0)
(-5.20237e-05 0.0319693 0)
(-0.0011822 0.0623352 0)
(-0.00346452 0.0751365 0)
(-0.00546792 0.0808568 0)
(-0.00658829 0.0850796 0)
(-0.00655516 0.0904225 0)
(-0.00507516 0.0980645 0)
(-0.00193692 0.108737 0)
(0.00362172 0.122221 0)
(0.0120243 0.136006 0)
(0.0214769 0.14287 0)
(0.029426 0.131249 0)
(0.0338738 0.0921995 0)
(0.0329421 0.0301514 0)
(0.0242451 -0.0395062 0)
(0.0105333 -0.103658 0)
(-0.0148235 -0.162646 0)
(-0.0388528 -0.245369 0)
(-0.0656185 -0.361719 0)
(-0.0109955 -0.351655 0)
(-0.000206316 0.0325522 0)
(-0.00126539 0.0640798 0)
(-0.00296113 0.0769627 0)
(-0.00381553 0.0818716 0)
(-0.00325545 0.08482 0)
(-0.00109792 0.0885746 0)
(0.00303959 0.0943105 0)
(0.00963735 0.102458 0)
(0.0192765 0.112929 0)
(0.0324278 0.123576 0)
(0.0478507 0.129153 0)
(0.062339 0.120651 0)
(0.0720384 0.0895963 0)
(0.0741755 0.0375661 0)
(0.0655759 -0.0245737 0)
(0.0500722 -0.0829463 0)
(0.0185123 -0.134412 0)
(-0.00894174 -0.214533 0)
(-0.0510433 -0.355683 0)
(-0.00021229 -0.389682 0)
(-0.000713242 0.0334501 0)
(-0.00231328 0.0655183 0)
(-0.00394518 0.0774323 0)
(-0.00390176 0.0809346 0)
(-0.0018117 0.0822892 0)
(0.00231214 0.0841853 0)
(0.00866224 0.0877195 0)
(0.017616 0.0930495 0)
(0.0296932 0.0998678 0)
(0.0452297 0.106699 0)
(0.0633915 0.109986 0)
(0.0814029 0.103619 0)
(0.0947294 0.080809 0)
(0.0999754 0.0406882 0)
(0.0926936 -0.00990399 0)
(0.0766165 -0.0596608 0)
(0.0413887 -0.104527 0)
(0.014975 -0.183573 0)
(-0.0406578 -0.3497 0)
(0.0102664 -0.423186 0)
(-0.00181778 0.0353398 0)
(-0.00462614 0.0685496 0)
(-0.00658144 0.0794645 0)
(-0.0058274 0.0804109 0)
(-0.00234685 0.0791335 0)
(0.00345426 0.0786186 0)
(0.0115159 0.0795828 0)
(0.0220267 0.0819911 0)
(0.0353088 0.08539 0)
(0.051511 0.08866 0)
(0.0699971 0.089548 0)
(0.0887445 0.0843155 0)
(0.103615 0.0685585 0)
(0.110885 0.0402292 0)
(0.105755 0.00322527 0)
(0.0912309 -0.0358794 0)
(0.0558314 -0.0727078 0)
(0.0345733 -0.150436 0)
(-0.0313264 -0.342559 0)
(0.0241594 -0.452163 0)
(-0.00392323 0.0427816 0)
(-0.0111357 0.0712627 0)
(-0.0140654 0.0754932 0)
(-0.0113737 0.0740151 0)
(-0.00537615 0.0714537 0)
(0.00253807 0.0695398 0)
(0.0121631 0.0687136 0)
(0.023767 0.0688863 0)
(0.0375904 0.0697202 0)
(0.0536378 0.0704269 0)
(0.0713181 0.069732 0)
(0.0891896 0.065458 0)
(0.103862 0.0554179 0)
(0.112456 0.0375381 0)
(0.108906 0.0139602 0)
(0.096812 -0.0136732 0)
(0.064433 -0.0447237 0)
(0.0501262 -0.125375 0)
(-0.0179604 -0.336984 0)
(0.0456895 -0.469182 0)
(-0.00327532 0.036668 0)
(-0.0103068 0.0840583 0)
(-0.0179825 0.0866604 0)
(-0.0170188 0.0772605 0)
(-0.011009 0.0694447 0)
(-0.00261046 0.0642737 0)
(0.00784855 0.0606836 0)
(0.020384 0.0581355 0)
(0.0349505 0.0564184 0)
(0.0512841 0.0548281 0)
(0.0685973 0.0530098 0)
(0.0861597 0.0494161 0)
(0.100611 0.0437114 0)
(0.111947 0.0338261 0)
(0.111572 0.0212855 0)
(0.108084 0.00326546 0)
(0.0822378 -0.0251122 0)
(0.0758029 -0.110733 0)
(0.0194752 -0.313229 0)
(0.0857986 -0.446364 0)
(-0.0979538 0.0959502 0)
(-0.0736827 0.0763218 0)
(-0.0611839 0.0588628 0)
(-0.0359337 0.0512216 0)
(-0.0122002 0.0456546 0)
(0.0111042 0.0411729 0)
(0.0332118 0.0375796 0)
(0.0560748 0.0346088 0)
(0.077416 0.0326065 0)
(0.100773 0.0307446 0)
(0.120626 0.0295583 0)
(0.144255 0.0277056 0)
(0.159363 0.0260524 0)
(0.180363 0.022878 0)
(0.183232 0.0186012 0)
(0.197464 0.00874581 0)
(0.174636 -0.0162214 0)
(0.181438 -0.0823357 0)
(0.134903 -0.226949 0)
(0.167264 -0.339219 0)
(0.135174 0.109051 0)
(0.170598 0.0863022 0)
(0.230292 0.0646647 0)
(0.285848 0.0507061 0)
(0.328961 0.0417512 0)
(0.367086 0.0349767 0)
(0.39652 0.0300284 0)
(0.427342 0.0256858 0)
(0.449383 0.0226984 0)
(0.477307 0.0196662 0)
(0.493534 0.0179731 0)
(0.520532 0.015614 0)
(0.530446 0.0148394 0)
(0.556433 0.0126484 0)
(0.55583 0.0123972 0)
(0.57539 0.0085195 0)
(0.548631 0.00410439 0)
(0.539026 -0.0148196 0)
(0.437086 -0.0472631 0)
(0.338838 -0.0993818 0)
)
;

boundaryField
{
    movingWall
    {
        type            fixedValue;
        value           uniform (1 0 0);
    }
    fixedWalls
    {
        type            noSlip;
    }
    frontAndBack
    {
        type            empty;
    }
}


// ************************************************************************* //
