/*--------------------------------*- C++ -*----------------------------------*\
| =========                 |                                                 |
| \\      /  F ield         | OpenFOAM: The Open Source CFD Toolbox           |
|  \\    /   O peration     | Version:  2212                                  |
|   \\  /    A nd           | Website:  www.openfoam.com                      |
|    \\/     M anipulation  |                                                 |
\*---------------------------------------------------------------------------*/
FoamFile
{
    version     2.0;
    format      ascii;
    arch        "LSB;label=32;scalar=64";
    class       volVectorField;
    location    "1.62";
    object      U;
}
// * * * * * * * * * * * * * * * * * * * * * * * * * * * * * * * * * * * * * //

dimensions      [0 1 -1 0 0 0 0];

internalField   nonuniform List<vector> 
400
(
(0.000710439 -0.000800391 0)
(0.00165741 -0.000702382 0)
(0.00157284 -0.00041731 0)
(0.000210642 -6.20053e-05 0)
(-0.00292973 0.000502014 0)
(-0.00860536 0.00146782 0)
(-0.0175315 0.00300459 0)
(-0.0298172 0.0049997 0)
(-0.0442321 0.00671707 0)
(-0.0579215 0.00698087 0)
(-0.0673628 0.0051414 0)
(-0.0698517 0.00172193 0)
(-0.0640413 -0.00214067 0)
(-0.0498077 -0.00582712 0)
(-0.0300581 -0.0079961 0)
(-0.00824161 -0.00745051 0)
(0.00923581 -0.00424587 0)
(0.0161563 0.00132456 0)
(0.0114292 0.00435316 0)
(0.00328755 0.00336435 0)
(0.000174897 -0.00158875 0)
(-0.00112203 -0.000122383 0)
(-0.00552994 0.00212697 0)
(-0.01346 0.00512926 0)
(-0.0262486 0.00937679 0)
(-0.0449304 0.014967 0)
(-0.0689292 0.021035 0)
(-0.0951282 0.025363 0)
(-0.118751 0.025339 0)
(-0.135634 0.0198695 0)
(-0.143339 0.00991516 0)
(-0.140935 -0.00252142 0)
(-0.128821 -0.0155054 0)
(-0.107201 -0.0270389 0)
(-0.0782282 -0.0338804 0)
(-0.0445552 -0.0326488 0)
(-0.011344 -0.0216966 0)
(0.0112211 -0.00316694 0)
(0.0131641 0.0109957 0)
(0.00445724 0.0108988 0)
(-0.00116545 0.000241389 0)
(-0.00658603 0.00553175 0)
(-0.0173948 0.0120583 0)
(-0.0335147 0.020702 0)
(-0.0563019 0.0316427 0)
(-0.0853726 0.0430197 0)
(-0.11733 0.0511835 0)
(-0.147163 0.0524565 0)
(-0.170889 0.0453765 0)
(-0.18651 0.0310217 0)
(-0.193213 0.0115336 0)
(-0.191014 -0.0108904 0)
(-0.180249 -0.0341409 0)
(-0.160641 -0.0551009 0)
(-0.132171 -0.0693929 0)
(-0.0952942 -0.071196 0)
(-0.0524238 -0.0550082 0)
(-0.0113807 -0.0213893 0)
(0.00778869 0.0114281 0)
(0.00392513 0.0179731 0)
(-0.0028565 0.0059723 0)
(-0.0130757 0.0174417 0)
(-0.0306014 0.0295332 0)
(-0.0541578 0.0447123 0)
(-0.0842805 0.0616659 0)
(-0.11873 0.0758242 0)
(-0.152631 0.0819957 0)
(-0.18147 0.0774095 0)
(-0.20315 0.062824 0)
(-0.217271 0.0407174 0)
(-0.223987 0.0133315 0)
(-0.223907 -0.0175558 0)
(-0.217297 -0.0499066 0)
(-0.203397 -0.0807586 0)
(-0.180631 -0.105466 0)
(-0.146951 -0.116543 0)
(-0.101105 -0.104005 0)
(-0.0460098 -0.0603986 0)
(-0.00067956 -0.000845503 0)
(0.00445988 0.0221795 0)
(-0.0044273 0.0156542 0)
(-0.0189305 0.0351436 0)
(-0.0418435 0.0531486 0)
(-0.0703302 0.0741463 0)
(-0.103893 0.094812 0)
(-0.138865 0.108514 0)
(-0.17009 0.110204 0)
(-0.194449 0.0991254 0)
(-0.211543 0.0779248 0)
(-0.222171 0.0496966 0)
(-0.22756 0.0165746 0)
(-0.228912 -0.0200716 0)
(-0.226585 -0.0588364 0)
(-0.219899 -0.0978673 0)
(-0.206761 -0.133751 0)
(-0.183135 -0.159102 0)
(-0.14426 -0.16078 0)
(-0.086982 -0.121198 0)
(-0.0176642 -0.0348177 0)
(0.00622121 0.0217633 0)
(-0.005353 0.0283197 0)
(-0.0225554 0.0568458 0)
(-0.0483233 0.0801611 0)
(-0.0782874 0.105248 0)
(-0.111113 0.127044 0)
(-0.142417 0.137954 0)
(-0.167637 0.134074 0)
(-0.185196 0.11669 0)
(-0.195973 0.0898452 0)
(-0.201709 0.0571402 0)
(-0.204434 0.0208779 0)
(-0.205691 -0.0177578 0)
(-0.206091 -0.0584142 0)
(-0.205691 -0.1011 0)
(-0.202914 -0.144846 0)
(-0.192973 -0.184754 0)
(-0.168543 -0.207803 0)
(-0.122104 -0.189384 0)
(-0.0510406 -0.100669 0)
(0.00463941 0.0114985 0)
(-0.00526308 0.0422588 0)
(-0.0229318 0.0799977 0)
(-0.0485805 0.107402 0)
(-0.0767269 0.134521 0)
(-0.105656 0.155306 0)
(-0.130978 0.162042 0)
(-0.149202 0.15225 0)
(-0.160127 0.128998 0)
(-0.165479 0.0974443 0)
(-0.167399 0.0616338 0)
(-0.16786 0.0239849 0)
(-0.168112 -0.014465 0)
(-0.168958 -0.0539269 0)
(-0.171432 -0.0956693 0)
(-0.175315 -0.141146 0)
(-0.176999 -0.189752 0)
(-0.168503 -0.232739 0)
(-0.140018 -0.244746 0)
(-0.0857372 -0.17993 0)
(-0.00651978 -0.0133588 0)
(-0.00409017 0.0554584 0)
(-0.0199458 0.10204 0)
(-0.0428639 0.132296 0)
(-0.066854 0.159716 0)
(-0.0902473 0.178134 0)
(-0.109194 0.180211 0)
(-0.121423 0.164834 0)
(-0.12775 0.136529 0)
(-0.130297 0.101285 0)
(-0.131074 0.0633054 0)
(-0.131325 0.0247454 0)
(-0.131384 -0.0136018 0)
(-0.131728 -0.0517612 0)
(-0.133837 -0.0907365 0)
(-0.139094 -0.133136 0)
(-0.146503 -0.182658 0)
(-0.149561 -0.237757 0)
(-0.137375 -0.278138 0)
(-0.102322 -0.248328 0)
(-0.0256156 -0.0636659 0)
(-0.00209418 0.0659932 0)
(-0.014299 0.120691 0)
(-0.0326255 0.152871 0)
(-0.0511554 0.179427 0)
(-0.0685255 0.195005 0)
(-0.0817196 0.192904 0)
(-0.0895888 0.173089 0)
(-0.0935016 0.141109 0)
(-0.095511 0.10344 0)
(-0.0970901 0.0641359 0)
(-0.0985437 0.024815 0)
(-0.0993851 -0.0140573 0)
(-0.0996529 -0.0520973 0)
(-0.100518 -0.089117 0)
(-0.104258 -0.127181 0)
(-0.112568 -0.1725 0)
(-0.121994 -0.231436 0)
(-0.121159 -0.293775 0)
(-0.101148 -0.303574 0)
(-0.0340731 -0.140494 0)
(0.000284501 0.0724087 0)
(-0.00702461 0.134413 0)
(-0.0195996 0.168181 0)
(-0.032079 0.193501 0)
(-0.0434369 0.206566 0)
(-0.0516202 0.20141 0)
(-0.056363 0.17872 0)
(-0.0591047 0.14465 0)
(-0.0614281 0.105864 0)
(-0.0641298 0.0660725 0)
(-0.0668718 0.0262645 0)
(-0.0688798 -0.0134642 0)
(-0.0699605 -0.0523812 0)
(-0.0706376 -0.0890011 0)
(-0.0729562 -0.123784 0)
(-0.0799603 -0.162931 0)
(-0.0921974 -0.219055 0)
(-0.0987545 -0.294961 0)
(-0.092013 -0.341919 0)
(-0.0300738 -0.216869 0)
(0.00256288 0.0738056 0)
(0.00068923 0.142046 0)
(-0.00558179 0.177491 0)
(-0.0118601 0.201556 0)
(-0.0173556 0.212743 0)
(-0.020892 0.205955 0)
(-0.0228709 0.182179 0)
(-0.0245081 0.147672 0)
(-0.0267475 0.10893 0)
(-0.0298235 0.0693004 0)
(-0.0331922 0.0293569 0)
(-0.0362603 -0.0109928 0)
(-0.0388071 -0.0508663 0)
(-0.0408825 -0.087989 0)
(-0.0437466 -0.121237 0)
(-0.0500159 -0.15494 0)
(-0.0637444 -0.204924 0)
(-0.0748241 -0.287602 0)
(-0.0801085 -0.366056 0)
(-0.022955 -0.280018 0)
(0.00436244 0.0704635 0)
(0.00789788 0.143438 0)
(0.0079574 0.180895 0)
(0.00780234 0.204191 0)
(0.008136 0.214389 0)
(0.00934091 0.207225 0)
(0.0105011 0.18376 0)
(0.0106484 0.149984 0)
(0.00940131 0.112021 0)
(0.00692051 0.0729934 0)
(0.00372776 0.0334255 0)
(-2.76452e-05 -0.00675492 0)
(-0.00419572 -0.0466235 0)
(-0.00872707 -0.0839074 0)
(-0.0142528 -0.116439 0)
(-0.0217218 -0.14621 0)
(-0.0376356 -0.189064 0)
(-0.0517414 -0.273476 0)
(-0.0686719 -0.378823 0)
(-0.0152193 -0.332996 0)
(0.0052147 0.0633194 0)
(0.0134459 0.138712 0)
(0.0194425 0.177965 0)
(0.0250991 0.20054 0)
(0.0311005 0.210217 0)
(0.0373321 0.203795 0)
(0.0425445 0.182061 0)
(0.0456977 0.150242 0)
(0.0465994 0.113905 0)
(0.0455801 0.0761135 0)
(0.0431483 0.0376071 0)
(0.0390764 -0.0016635 0)
(0.0334644 -0.0403655 0)
(0.0260859 -0.0766243 0)
(0.0165101 -0.108068 0)
(0.0056728 -0.134956 0)
(-0.0138036 -0.17157 0)
(-0.0293057 -0.254279 0)
(-0.0579961 -0.381878 0)
(-0.00728771 -0.375849 0)
(0.0048691 0.0539124 0)
(0.0163589 0.128718 0)
(0.0276577 0.169667 0)
(0.0388375 0.191895 0)
(0.0504541 0.201257 0)
(0.0620224 0.196186 0)
(0.0721047 0.177114 0)
(0.0793951 0.148196 0)
(0.0835345 0.114268 0)
(0.0847494 0.0783959 0)
(0.0834611 0.0417715 0)
(0.079398 0.00465507 0)
(0.0724518 -0.0315954 0)
(0.0622784 -0.0655686 0)
(0.0484091 -0.095122 0)
(0.0326725 -0.119584 0)
(0.00802134 -0.150859 0)
(-0.0070883 -0.230727 0)
(-0.0482069 -0.378961 0)
(0.00121569 -0.412411 0)
(0.00332642 0.0443956 0)
(0.0156461 0.115244 0)
(0.0305124 0.155622 0)
(0.0463375 0.176394 0)
(0.0634237 0.184875 0)
(0.0807591 0.181223 0)
(0.0965526 0.16555 0)
(0.109093 0.140735 0)
(0.117605 0.110664 0)
(0.121989 0.0781918 0)
(0.122439 0.0449096 0)
(0.118827 0.0114772 0)
(0.110581 -0.0209394 0)
(0.0978794 -0.0511486 0)
(0.0795959 -0.0775027 0)
(0.0587874 -0.0999218 0)
(0.0286267 -0.127312 0)
(0.0150949 -0.20468 0)
(-0.0389347 -0.373305 0)
(0.0113104 -0.444388 0)
(0.000810605 0.0366442 0)
(0.0114077 0.101038 0)
(0.0283773 0.139802 0)
(0.0479556 0.158627 0)
(0.0699351 0.165341 0)
(0.0927811 0.162142 0)
(0.114353 0.149438 0)
(0.13251 0.129017 0)
(0.145951 0.103697 0)
(0.154196 0.0758793 0)
(0.156928 0.0472379 0)
(0.154406 0.0187641 0)
(0.14536 -0.0086438 0)
(0.130769 -0.0337492 0)
(0.10858 -0.0556619 0)
(0.0835924 -0.0755613 0)
(0.0486436 -0.101031 0)
(0.036272 -0.178107 0)
(-0.028907 -0.367068 0)
(0.0253577 -0.470955 0)
(-0.00291512 0.0362633 0)
(0.000636076 0.0891599 0)
(0.0156668 0.117654 0)
(0.0386665 0.131677 0)
(0.0658083 0.13629 0)
(0.094503 0.133559 0)
(0.122079 0.124001 0)
(0.146176 0.108639 0)
(0.164962 0.089378 0)
(0.17768 0.0679839 0)
(0.183366 0.0460147 0)
(0.182585 0.0243778 0)
(0.173642 0.00395601 0)
(0.158818 -0.0147087 0)
(0.134345 -0.0310527 0)
(0.107941 -0.0482756 0)
(0.0702027 -0.0743463 0)
(0.0571981 -0.153969 0)
(-0.0120595 -0.356014 0)
(0.0482871 -0.482727 0)
(-0.00821325 0.0270932 0)
(-0.00808603 0.0867849 0)
(0.00345062 0.107488 0)
(0.0273921 0.111642 0)
(0.0578088 0.110211 0)
(0.0904608 0.10565 0)
(0.122355 0.0978646 0)
(0.150698 0.0866824 0)
(0.173575 0.0733171 0)
(0.190299 0.0585374 0)
(0.199048 0.0438291 0)
(0.20178 0.0295369 0)
(0.194996 0.0168754 0)
(0.184294 0.0051405 0)
(0.162212 -0.00527195 0)
(0.142284 -0.020219 0)
(0.105132 -0.0487646 0)
(0.0912736 -0.131623 0)
(0.0292897 -0.322367 0)
(0.0893638 -0.453 0)
(-0.102155 0.0886228 0)
(-0.0758872 0.0720955 0)
(-0.0541691 0.0653547 0)
(-0.0132176 0.0641376 0)
(0.0286327 0.0625746 0)
(0.0711787 0.0597977 0)
(0.111152 0.0557544 0)
(0.148946 0.049979 0)
(0.179849 0.0435206 0)
(0.208093 0.0362708 0)
(0.225932 0.0294997 0)
(0.243128 0.0228676 0)
(0.246773 0.0175974 0)
(0.253829 0.0125805 0)
(0.242384 0.00776889 0)
(0.240237 -0.00210591 0)
(0.20684 -0.0268292 0)
(0.203275 -0.0900634 0)
(0.145098 -0.228852 0)
(0.169626 -0.34115 0)
(0.132496 0.106136 0)
(0.163823 0.0805509 0)
(0.220274 0.0586266 0)
(0.277062 0.0455555 0)
(0.324838 0.0380922 0)
(0.370521 0.0328856 0)
(0.408653 0.0292795 0)
(0.448535 0.0258172 0)
(0.478275 0.0232849 0)
(0.51177 0.0202644 0)
(0.531021 0.0183408 0)
(0.557637 0.0155395 0)
(0.565369 0.0143598 0)
(0.58599 0.0117167 0)
(0.58034 0.0111055 0)
(0.59255 0.00680742 0)
(0.560831 0.0020509 0)
(0.545687 -0.0166867 0)
(0.438026 -0.0495214 0)
(0.338612 -0.101035 0)
)
;

boundaryField
{
    movingWall
    {
        type            fixedValue;
        value           uniform (1 0 0);
    }
    fixedWalls
    {
        type            noSlip;
    }
    frontAndBack
    {
        type            empty;
    }
}


// ************************************************************************* //
