/*--------------------------------*- C++ -*----------------------------------*\
| =========                 |                                                 |
| \\      /  F ield         | OpenFOAM: The Open Source CFD Toolbox           |
|  \\    /   O peration     | Version:  2212                                  |
|   \\  /    A nd           | Website:  www.openfoam.com                      |
|    \\/     M anipulation  |                                                 |
\*---------------------------------------------------------------------------*/
FoamFile
{
    version     2.0;
    format      ascii;
    arch        "LSB;label=32;scalar=64";
    class       surfaceScalarField;
    location    "3.525";
    object      phi;
}
// * * * * * * * * * * * * * * * * * * * * * * * * * * * * * * * * * * * * * //

dimensions      [0 3 -1 0 0 0 0];

oriented        oriented;

internalField   nonuniform List<scalar> 
760
(
1.50919e-07
-1.50919e-07
2.82648e-07
-1.3173e-07
2.96627e-07
-1.39785e-08
1.70933e-07
1.25694e-07
-1.29216e-07
3.00149e-07
-6.65861e-07
5.36645e-07
-1.47034e-06
8.04479e-07
-2.45898e-06
9.88641e-07
-3.43535e-06
9.7637e-07
-4.1703e-06
7.34946e-07
-4.49703e-06
3.26738e-07
-4.31899e-06
-1.78044e-07
-3.57723e-06
-7.41755e-07
-2.383e-06
-1.19424e-06
-9.62603e-07
-1.42039e-06
3.1357e-07
-1.27617e-06
1.05764e-06
-7.44066e-07
1.01312e-06
4.4514e-08
4.53843e-07
5.59279e-07
4.53843e-07
1.16484e-07
-2.67403e-07
5.96624e-08
-7.49085e-08
-3.09478e-07
3.55162e-07
-1.07913e-06
8.95346e-07
-2.29415e-06
1.51517e-06
-3.87778e-06
2.12028e-06
-5.58732e-06
2.51402e-06
-7.11553e-06
2.51685e-06
-8.23851e-06
2.09935e-06
-8.84512e-06
1.34156e-06
-8.88746e-06
3.6907e-07
-8.34173e-06
-7.23773e-07
-7.23884e-06
-1.84465e-06
-5.61034e-06
-2.82273e-06
-3.59769e-06
-3.43304e-06
-1.50164e-06
-3.37223e-06
1.54627e-07
-2.40033e-06
8.3862e-07
-6.39478e-07
5.17274e-07
8.80624e-07
9.71118e-07
-1.33161e-07
-1.34242e-07
-6.37122e-07
4.29052e-07
-1.61335e-06
1.33139e-06
-3.103e-06
2.385e-06
-4.98655e-06
3.39872e-06
-6.97375e-06
4.10747e-06
-8.75416e-06
4.29443e-06
-1.01467e-05
3.90943e-06
-1.10977e-05
3.05032e-06
-1.15987e-05
1.8426e-06
-1.16007e-05
3.70998e-07
-1.11522e-05
-1.1722e-06
-1.02354e-05
-2.76146e-06
-8.79585e-06
-4.26232e-06
-6.81263e-06
-5.41626e-06
-4.37331e-06
-5.81155e-06
-1.87263e-06
-4.90101e-06
-9.36956e-08
-2.41841e-06
2.91061e-07
4.95868e-07
1.26218e-06
-4.9604e-07
3.61798e-07
-1.54092e-06
1.47393e-06
-3.07359e-06
2.86405e-06
-5.00226e-06
4.31367e-06
-7.07538e-06
5.47184e-06
-8.99083e-06
6.02292e-06
-1.05463e-05
5.84989e-06
-1.16962e-05
5.05933e-06
-1.24674e-05
3.82152e-06
-1.28947e-05
2.26992e-06
-1.29651e-05
4.41355e-07
-1.27336e-05
-1.40363e-06
-1.2164e-05
-3.33111e-06
-1.11542e-05
-5.2721e-06
-9.573e-06
-6.99746e-06
-7.29588e-06
-8.08866e-06
-4.36109e-06
-7.8358e-06
-1.37162e-06
-5.40789e-06
1.1753e-07
-9.93281e-07
1.37971e-06
-8.47299e-07
1.2091e-06
-2.32088e-06
2.94751e-06
-4.15943e-06
4.7026e-06
-6.17511e-06
6.32936e-06
-8.09313e-06
7.38986e-06
-9.69176e-06
7.62155e-06
-1.08913e-05
7.04943e-06
-1.1716e-05
5.884e-06
-1.22272e-05
4.3328e-06
-1.24984e-05
2.54103e-06
-1.26193e-05
5.62299e-07
-1.25806e-05
-1.44234e-06
-1.23718e-05
-3.53992e-06
-1.19128e-05
-5.73109e-06
-1.10167e-05
-7.89355e-06
-9.39608e-06
-9.70929e-06
-6.75481e-06
-1.04771e-05
-3.19361e-06
-8.96909e-06
-2.62334e-07
-3.92455e-06
1.11737e-06
-1.06429e-06
2.27339e-06
-2.73051e-06
4.61373e-06
-4.59234e-06
6.56443e-06
-6.4238e-06
8.16082e-06
-8.0033e-06
8.96935e-06
-9.1979e-06
8.81615e-06
-9.99989e-06
7.85143e-06
-1.04726e-05
6.35674e-06
-1.07064e-05
4.56658e-06
-1.08024e-05
2.63701e-06
-1.08826e-05
6.42498e-07
-1.0939e-05
-1.38589e-06
-1.09854e-05
-3.49355e-06
-1.09911e-05
-5.72542e-06
-1.08001e-05
-8.08458e-06
-1.00835e-05
-1.04258e-05
-8.34952e-06
-1.22111e-05
-5.1888e-06
-1.21298e-05
-1.14851e-06
-7.96485e-06
-3.1133e-08
-1.08522e-06
3.3586e-06
-2.70207e-06
6.23058e-06
-4.37232e-06
8.23468e-06
-5.88676e-06
9.67527e-06
-7.08591e-06
1.01685e-05
-7.90426e-06
9.6345e-06
-8.37592e-06
8.32309e-06
-8.58648e-06
6.5673e-06
-8.6401e-06
4.6202e-06
-8.6363e-06
2.63322e-06
-8.66105e-06
6.67242e-07
-8.73599e-06
-1.31095e-06
-8.88075e-06
-3.3488e-06
-9.1057e-06
-5.50047e-06
-9.35055e-06
-7.83973e-06
-9.3792e-06
-1.03972e-05
-8.67044e-06
-1.29198e-05
-6.4733e-06
-1.43269e-05
-2.3964e-06
-1.20417e-05
-2.42753e-06
-9.12903e-07
4.27151e-06
-2.29779e-06
7.61547e-06
-3.66306e-06
9.59994e-06
-4.82578e-06
1.0838e-05
-5.68407e-06
1.10268e-05
-6.21793e-06
1.01684e-05
-6.48156e-06
8.58672e-06
-6.56506e-06
6.65079e-06
-6.56606e-06
4.62121e-06
-6.56057e-06
2.62773e-06
-6.58786e-06
6.94525e-07
-6.66685e-06
-1.23196e-06
-6.81993e-06
-3.19572e-06
-7.07798e-06
-5.24241e-06
-7.45593e-06
-7.46178e-06
-7.85677e-06
-9.99632e-06
-7.864e-06
-1.29126e-05
-6.66029e-06
-1.55307e-05
-3.54558e-06
-1.51565e-05
-5.97311e-06
-6.08477e-07
4.87998e-06
-1.65067e-06
8.65767e-06
-2.66761e-06
1.06169e-05
-3.49424e-06
1.16646e-05
-4.07373e-06
1.16063e-05
-4.41381e-06
1.05084e-05
-4.57137e-06
8.74429e-06
-4.62466e-06
6.70407e-06
-4.64753e-06
4.64408e-06
-4.68615e-06
2.66635e-06
-4.7523e-06
7.60683e-07
-4.85371e-06
-1.13055e-06
-5.00169e-06
-3.04774e-06
-5.22662e-06
-5.01749e-06
-5.58429e-06
-7.10411e-06
-6.08469e-06
-9.49592e-06
-6.50012e-06
-1.24972e-05
-6.08384e-06
-1.59469e-05
-3.89147e-06
-1.73488e-05
-9.86458e-06
-2.24916e-07
5.1049e-06
-8.72413e-07
9.30516e-06
-1.53325e-06
1.12777e-05
-2.05431e-06
1.21857e-05
-2.40658e-06
1.19586e-05
-2.61303e-06
1.07149e-05
-2.72111e-06
8.85237e-06
-2.78418e-06
6.76714e-06
-2.84807e-06
4.70797e-06
-2.93592e-06
2.75419e-06
-3.05069e-06
8.75456e-07
-3.19256e-06
-9.88682e-07
-3.36277e-06
-2.87752e-06
-3.57566e-06
-4.80461e-06
-3.88568e-06
-6.79409e-06
-4.37494e-06
-9.00666e-06
-4.98269e-06
-1.18894e-05
-5.09637e-06
-1.58333e-05
-3.53966e-06
-1.89055e-05
-1.34042e-05
1.61268e-07
4.94363e-06
-6.63318e-08
9.53276e-06
-3.93527e-07
1.16049e-05
-6.3994e-07
1.24321e-05
-7.90572e-07
1.21092e-05
-8.76023e-07
1.08003e-05
-9.35899e-07
8.91225e-06
-1.0024e-06
6.83365e-06
-1.09233e-06
4.7979e-06
-1.21307e-06
2.87493e-06
-1.3663e-06
1.02868e-06
-1.55399e-06
-8.00998e-07
-1.77551e-06
-2.656e-06
-2.03081e-06
-4.54931e-06
-2.35099e-06
-6.47392e-06
-2.83311e-06
-8.52453e-06
-3.53645e-06
-1.11861e-05
-4.01281e-06
-1.53569e-05
-3.01732e-06
-1.9901e-05
-1.64216e-05
4.89518e-07
4.45411e-06
6.84345e-07
9.33793e-06
7.27203e-07
1.15621e-05
7.63456e-07
1.23958e-05
8.09725e-07
1.20629e-05
8.39718e-07
1.07703e-05
8.32737e-07
8.91923e-06
7.80327e-07
6.88605e-06
6.8492e-07
4.89331e-06
5.49395e-07
3.01046e-06
3.70166e-07
1.20791e-06
1.41307e-07
-5.72138e-07
-1.39984e-07
-2.37471e-06
-4.80444e-07
-4.20885e-06
-8.87605e-07
-6.06676e-06
-1.41192e-06
-8.00022e-06
-2.20108e-06
-1.03969e-05
-2.95746e-06
-1.46005e-05
-2.46293e-06
-2.03955e-05
-1.88845e-05
7.36764e-07
3.71735e-06
1.3234e-06
8.7513e-06
1.71031e-06
1.11751e-05
2.03657e-06
1.20696e-05
2.30845e-06
1.1791e-05
2.49361e-06
1.05852e-05
2.58212e-06
8.83072e-06
2.58466e-06
6.88352e-06
2.51673e-06
4.96123e-06
2.38783e-06
3.13936e-06
2.19267e-06
1.40307e-06
1.91775e-06
-2.97222e-07
1.56164e-06
-2.0186e-06
1.11905e-06
-3.76626e-06
5.83798e-07
-5.5315e-06
-9.98868e-08
-7.31653e-06
-9.74919e-07
-9.5219e-06
-1.93897e-06
-1.36365e-05
-1.93458e-06
-2.03999e-05
-2.08191e-05
8.46362e-07
2.87099e-06
1.76652e-06
7.83114e-06
2.49624e-06
1.04454e-05
3.1295e-06
1.14363e-05
3.6722e-06
1.12483e-05
4.079e-06
1.01784e-05
4.33201e-06
8.57771e-06
4.4449e-06
6.77063e-06
4.44222e-06
4.9639e-06
4.3413e-06
3.24029e-06
4.14179e-06
1.60258e-06
3.81845e-06
2.61236e-08
3.38119e-06
-1.58134e-06
2.80974e-06
-3.19481e-06
2.10284e-06
-4.82461e-06
1.27519e-06
-6.48887e-06
2.31708e-07
-8.47843e-06
-9.88819e-07
-1.24159e-05
-1.44173e-06
-1.9947e-05
-2.22608e-05
7.82264e-07
2.08872e-06
1.90303e-06
6.71038e-06
2.92718e-06
9.42127e-06
3.88777e-06
1.04757e-05
4.7556e-06
1.03805e-05
5.46291e-06
9.47108e-06
5.96864e-06
8.07198e-06
6.27511e-06
6.46416e-06
6.40449e-06
4.83452e-06
6.37724e-06
3.26754e-06
6.19463e-06
1.78519e-06
5.85002e-06
3.70735e-07
5.3191e-06
-1.05042e-06
4.6036e-06
-2.47931e-06
3.69579e-06
-3.91679e-06
2.6235e-06
-5.41658e-06
1.34025e-06
-7.19517e-06
-1.82077e-07
-1.08936e-05
-9.33657e-07
-1.91954e-05
-2.31945e-05
5.58996e-07
1.52973e-06
1.70977e-06
5.5596e-06
3.02262e-06
8.10842e-06
4.35284e-06
9.14552e-06
5.60319e-06
9.13015e-06
6.67398e-06
8.40028e-06
7.4981e-06
7.24785e-06
8.06186e-06
5.9004e-06
8.3782e-06
4.51818e-06
8.46572e-06
3.18002e-06
8.33231e-06
1.9186e-06
7.97691e-06
7.26128e-07
7.35698e-06
-4.30487e-07
6.48892e-06
-1.61124e-06
5.35998e-06
-2.78785e-06
4.01188e-06
-4.06849e-06
2.50751e-06
-5.6908e-06
9.08704e-07
-9.29482e-06
-1.66952e-07
-1.81198e-05
-2.33614e-05
1.41277e-07
1.38845e-06
9.99155e-07
4.70172e-06
2.44654e-06
6.66103e-06
4.14074e-06
7.45133e-06
5.83954e-06
7.43134e-06
7.35598e-06
6.88385e-06
8.58594e-06
6.01789e-06
9.49875e-06
4.98759e-06
1.00893e-05
3.92765e-06
1.03707e-05
2.89864e-06
1.03493e-05
1.93993e-06
1.00322e-05
1.04324e-06
9.38039e-06
2.21347e-07
8.40597e-06
-6.36823e-07
7.10673e-06
-1.48861e-06
5.53217e-06
-2.49392e-06
3.83865e-06
-3.99728e-06
2.19695e-06
-7.65311e-06
6.36189e-07
-1.6559e-05
-2.27252e-05
-5.09666e-07
1.89812e-06
1.84209e-07
4.00785e-06
1.70354e-06
5.1417e-06
3.72939e-06
5.42548e-06
5.85138e-06
5.30935e-06
7.78597e-06
4.94925e-06
9.39541e-06
4.40845e-06
1.0638e-05
3.74503e-06
1.14953e-05
3.07035e-06
1.1985e-05
2.40893e-06
1.2112e-05
1.8129e-06
1.18975e-05
1.25778e-06
1.1361e-05
7.57844e-07
1.04814e-05
2.42726e-07
9.26321e-06
-2.70404e-07
7.77219e-06
-1.0029e-06
6.19451e-06
-2.4196e-06
4.41741e-06
-5.87602e-06
2.03926e-06
-1.41809e-05
-2.0686e-05
-4.17127e-06
6.06938e-06
-3.63948e-06
3.47607e-06
-1.26942e-06
2.77164e-06
1.49596e-06
2.6601e-06
4.20231e-06
2.603e-06
6.70699e-06
2.44458e-06
8.8994e-06
2.21605e-06
1.072e-05
1.92447e-06
1.21509e-05
1.63937e-06
1.3219e-05
1.34083e-06
1.39415e-05
1.09048e-06
1.43624e-05
8.36849e-07
1.44717e-05
6.48568e-07
1.42815e-05
4.32863e-07
1.37786e-05
2.3252e-07
1.29774e-05
-2.01741e-07
1.18723e-05
-1.31447e-06
1.00919e-05
-4.0956e-06
5.62949e-06
-9.71846e-06
-1.50565e-05
6.06938e-06
9.54545e-06
1.23171e-05
1.49772e-05
1.75802e-05
2.00248e-05
2.22408e-05
2.41653e-05
2.58046e-05
2.71455e-05
2.8236e-05
2.90728e-05
2.97214e-05
3.01542e-05
3.03868e-05
3.0185e-05
2.88705e-05
2.47749e-05
1.50565e-05
)
;

boundaryField
{
    movingWall
    {
        type            calculated;
        value           uniform 0;
    }
    fixedWalls
    {
        type            calculated;
        value           uniform 0;
    }
    frontAndBack
    {
        type            empty;
        value           nonuniform List<scalar> 0();
    }
}


// ************************************************************************* //
