/*--------------------------------*- C++ -*----------------------------------*\
| =========                 |                                                 |
| \\      /  F ield         | OpenFOAM: The Open Source CFD Toolbox           |
|  \\    /   O peration     | Version:  2212                                  |
|   \\  /    A nd           | Website:  www.openfoam.com                      |
|    \\/     M anipulation  |                                                 |
\*---------------------------------------------------------------------------*/
FoamFile
{
    version     2.0;
    format      ascii;
    arch        "LSB;label=32;scalar=64";
    class       volScalarField;
    location    "3.59";
    object      p;
}
// * * * * * * * * * * * * * * * * * * * * * * * * * * * * * * * * * * * * * //

dimensions      [0 2 -2 0 0 0 0];

internalField   nonuniform List<scalar> 
400
(
1.6432e-08
-0.000149186
-0.000525917
-0.00105385
-0.00170354
-0.00245053
-0.00312983
-0.00353567
-0.00350137
-0.00287432
-0.00150341
0.000639153
0.00324613
0.00550649
0.0065531
0.00599654
0.00413051
0.00230964
0.00127646
0.00120198
0.000116569
-5.5171e-05
-0.000367561
-0.000749228
-0.0012229
-0.00185527
-0.00265493
-0.00347164
-0.00399325
-0.0038501
-0.00277267
-0.000776482
0.00171396
0.00398017
0.0051682
0.00483543
0.00325162
0.00154536
0.000766471
0.000848161
0.000527157
0.000262865
-7.21444e-05
-0.000546352
-0.0013183
-0.0025231
-0.00412175
-0.00584325
-0.00722839
-0.00775794
-0.00709124
-0.00531463
-0.00277385
-9.57312e-05
0.00189476
0.00255738
0.00187481
0.000686301
-0.000209401
-0.000216751
0.00112318
0.000721595
0.000187314
-0.000754906
-0.00238795
-0.00481093
-0.00779256
-0.0108435
-0.0133683
-0.0148127
-0.0148454
-0.0135043
-0.011
-0.00777989
-0.00453658
-0.00201147
-0.000678119
-0.000516407
-0.00109785
-0.00173051
0.00152363
0.000931354
-3.28584e-05
-0.00187695
-0.00487251
-0.00893544
-0.0135514
-0.0180094
-0.0216617
-0.0240479
-0.0249117
-0.0241339
-0.021832
-0.0182851
-0.0139223
-0.00934386
-0.00534046
-0.00274191
-0.00200908
-0.00381459
0.00121586
0.000393416
-0.00119241
-0.00420083
-0.00876424
-0.0144823
-0.0205188
-0.0260241
-0.0303931
-0.0333124
-0.0346571
-0.0343296
-0.032406
-0.0290244
-0.0243168
-0.0184953
-0.0121536
-0.00669328
-0.00419677
-0.00629815
-0.000117482
-0.00118196
-0.00345106
-0.00760873
-0.0135616
-0.0205473
-0.0274833
-0.0334924
-0.0380842
-0.0411018
-0.0425571
-0.042473
-0.0409121
-0.0379358
-0.0335118
-0.0275142
-0.0200535
-0.0123624
-0.00761249
-0.00754532
-0.00248012
-0.00373007
-0.00658125
-0.0116229
-0.018532
-0.0262492
-0.0335611
-0.03965
-0.0441693
-0.0470889
-0.0485041
-0.0485143
-0.0471971
-0.0445929
-0.0406418
-0.0350971
-0.027687
-0.0189167
-0.0115277
-0.00779022
-0.00550488
-0.00683683
-0.0100649
-0.0156271
-0.0230225
-0.0310086
-0.03834
-0.0442941
-0.048644
-0.0514371
-0.0528037
-0.0528563
-0.0516699
-0.0492964
-0.0457335
-0.0408054
-0.0340787
-0.0253668
-0.0163209
-0.00974603
-0.00863415
-0.00993921
-0.0133223
-0.019058
-0.0265478
-0.03449
-0.04167
-0.0474436
-0.051652
-0.0543682
-0.0557189
-0.0557975
-0.0546688
-0.0523989
-0.0490566
-0.0446109
-0.0387231
-0.0308322
-0.0218222
-0.0139765
-0.0113516
-0.0125578
-0.0158881
-0.0215112
-0.0288049
-0.0365213
-0.0435056
-0.0491448
-0.053288
-0.05599
-0.0573538
-0.0574502
-0.0563314
-0.0540701
-0.0507957
-0.0466193
-0.0414514
-0.0346255
-0.0266213
-0.0187163
-0.013368
-0.0143902
-0.0174999
-0.0227539
-0.0296151
-0.0369822
-0.0437817
-0.0493774
-0.0535547
-0.0563152
-0.0577234
-0.0578306
-0.0566802
-0.0543474
-0.0510125
-0.0469011
-0.042231
-0.0363027
-0.0294415
-0.0219153
-0.0146495
-0.0153404
-0.0180079
-0.0226758
-0.0289185
-0.035847
-0.0424811
-0.0481234
-0.0524382
-0.0553363
-0.056828
-0.056942
-0.0557177
-0.0532509
-0.0497485
-0.0454998
-0.0410754
-0.0356304
-0.0296953
-0.0224361
-0.0152883
-0.015519
-0.0174792
-0.0212832
-0.0267095
-0.0331094
-0.0395848
-0.0453472
-0.0499044
-0.0530361
-0.0546762
-0.0548243
-0.0535036
-0.0508355
-0.047071
-0.0425845
-0.0380092
-0.0326358
-0.0276921
-0.0199489
-0.0154113
-0.0151323
-0.0161108
-0.018734
-0.0231161
-0.0288767
-0.0351813
-0.0411228
-0.0460231
-0.0494951
-0.0513676
-0.0515871
-0.0501927
-0.0472798
-0.0431674
-0.038282
-0.0332918
-0.027797
-0.024021
-0.0142659
-0.015138
-0.014426
-0.0141171
-0.0152078
-0.018328
-0.0233449
-0.0294607
-0.0356247
-0.0409565
-0.0448802
-0.0470998
-0.0474929
-0.0460862
-0.0429493
-0.0384409
-0.0330107
-0.0274199
-0.0216205
-0.0181561
-0.00397574
-0.0145563
-0.0135377
-0.0116531
-0.0110144
-0.0127978
-0.0170611
-0.0230056
-0.0294235
-0.0352511
-0.0397245
-0.0424184
-0.0431144
-0.041809
-0.038539
-0.0336221
-0.0274422
-0.0207416
-0.013577
-0.00723916
0.0156455
-0.0145278
-0.0126259
-0.00868414
-0.00631703
-0.00694851
-0.0106482
-0.0165225
-0.0232268
-0.0295849
-0.0346731
-0.0379571
-0.0390983
-0.0380458
-0.0348077
-0.0295294
-0.0222422
-0.0131836
-0.00128451
0.0159478
0.0564357
-0.0117911
-0.011861
-0.00586683
-0.00199186
-0.00195711
-0.00547665
-0.0114562
-0.0184768
-0.0253299
-0.0309811
-0.0348653
-0.0365597
-0.0359704
-0.0328265
-0.0269771
-0.0176365
-0.00360615
0.0197326
0.0598385
0.129108
-0.0294998
-0.0107026
-0.000810598
0.00280219
0.00218896
-0.00170053
-0.00795529
-0.0152898
-0.0225016
-0.0285317
-0.0327904
-0.0348323
-0.0345251
-0.0314546
-0.0249837
-0.0129355
0.00899128
0.0504661
0.122101
0.22543
)
;

boundaryField
{
    movingWall
    {
        type            zeroGradient;
    }
    fixedWalls
    {
        type            zeroGradient;
    }
    frontAndBack
    {
        type            empty;
    }
}


// ************************************************************************* //
