/*--------------------------------*- C++ -*----------------------------------*\
| =========                 |                                                 |
| \\      /  F ield         | OpenFOAM: The Open Source CFD Toolbox           |
|  \\    /   O peration     | Version:  2212                                  |
|   \\  /    A nd           | Website:  www.openfoam.com                      |
|    \\/     M anipulation  |                                                 |
\*---------------------------------------------------------------------------*/
FoamFile
{
    version     2.0;
    format      ascii;
    arch        "LSB;label=32;scalar=64";
    class       surfaceScalarField;
    location    "1.98";
    object      phi;
}
// * * * * * * * * * * * * * * * * * * * * * * * * * * * * * * * * * * * * * //

dimensions      [0 3 -1 0 0 0 0];

oriented        oriented;

internalField   nonuniform List<scalar> 
760
(
9.52395e-08
-9.52415e-08
1.62466e-07
-6.72264e-08
1.4873e-07
1.37368e-08
3.24328e-08
1.16297e-07
-2.20783e-07
2.53216e-07
-6.59043e-07
4.3826e-07
-1.30985e-06
6.5081e-07
-2.12515e-06
8.15298e-07
-2.96144e-06
8.36284e-07
-3.62613e-06
6.64694e-07
-3.95494e-06
3.28806e-07
-3.85283e-06
-1.02103e-07
-3.24053e-06
-6.12305e-07
-2.21088e-06
-1.02964e-06
-9.64004e-07
-1.24688e-06
1.70441e-07
-1.13445e-06
8.58644e-07
-6.88203e-07
8.6195e-07
-3.30569e-09
3.94244e-07
4.67706e-07
3.94244e-07
3.16167e-08
-1.26858e-07
-8.32389e-08
4.763e-08
-4.1758e-07
3.48079e-07
-1.04742e-06
7.46137e-07
-2.02579e-06
1.23158e-06
-3.32442e-06
1.7369e-06
-4.78563e-06
2.11202e-06
-6.16411e-06
2.19377e-06
-7.23604e-06
1.90821e-06
-7.86291e-06
1.29156e-06
-7.98013e-06
4.46029e-07
-7.54572e-06
-5.36514e-07
-6.58618e-06
-1.57185e-06
-5.13021e-06
-2.48561e-06
-3.31114e-06
-3.06595e-06
-1.40932e-06
-3.03627e-06
8.94816e-08
-2.187e-06
7.27942e-07
-6.41766e-07
4.59669e-07
7.35979e-07
8.53913e-07
-1.71347e-07
4.44892e-08
-6.34449e-07
5.10733e-07
-1.44159e-06
1.15522e-06
-2.6478e-06
1.95235e-06
-4.21137e-06
2.79515e-06
-5.94505e-06
3.47057e-06
-7.58921e-06
3.75619e-06
-8.94388e-06
3.54844e-06
-9.91419e-06
2.87853e-06
-1.04665e-05
1.84383e-06
-1.0559e-05
5.38581e-07
-1.01945e-05
-9.01004e-07
-9.37567e-06
-2.3907e-06
-8.05654e-06
-3.80475e-06
-6.22125e-06
-4.90123e-06
-3.97347e-06
-5.28406e-06
-1.68364e-06
-4.47683e-06
-7.63261e-08
-2.24908e-06
2.76407e-07
3.83245e-07
1.13032e-06
-4.31343e-07
4.75832e-07
-1.30498e-06
1.38437e-06
-2.55792e-06
2.40816e-06
-4.16924e-06
3.56367e-06
-5.98882e-06
4.61472e-06
-7.7752e-06
5.25696e-06
-9.3177e-06
5.29868e-06
-1.05166e-05
4.74735e-06
-1.13624e-05
3.72433e-06
-1.18704e-05
2.35185e-06
-1.20252e-05
6.93369e-07
-1.18509e-05
-1.07535e-06
-1.13363e-05
-2.90528e-06
-1.0386e-05
-4.75505e-06
-8.88344e-06
-6.40378e-06
-6.71949e-06
-7.44801e-06
-3.96631e-06
-7.23e-06
-1.22702e-06
-4.98837e-06
1.1693e-07
-9.60705e-07
1.24725e-06
-6.84593e-07
1.16043e-06
-1.88845e-06
2.58822e-06
-3.42125e-06
3.94096e-06
-5.1816e-06
5.32403e-06
-6.96797e-06
6.40109e-06
-8.56344e-06
6.85244e-06
-9.84149e-06
6.57673e-06
-1.07785e-05
5.68434e-06
-1.14064e-05
4.35221e-06
-1.17785e-05
2.72396e-06
-1.19581e-05
8.73035e-07
-1.19597e-05
-1.07382e-06
-1.17729e-05
-3.09208e-06
-1.13179e-05
-5.20998e-06
-1.0422e-05
-7.29974e-06
-8.82039e-06
-9.0496e-06
-6.26442e-06
-9.78598e-06
-2.90293e-06
-8.34986e-06
-2.27984e-07
-3.63565e-06
1.01927e-06
-8.40998e-07
2.00142e-06
-2.21235e-06
3.95957e-06
-3.81038e-06
5.53899e-06
-5.48198e-06
6.99563e-06
-7.03212e-06
7.95123e-06
-8.30154e-06
8.12185e-06
-9.22895e-06
7.50414e-06
-9.8372e-06
6.29259e-06
-1.01912e-05
4.70625e-06
-1.03764e-05
2.90912e-06
-1.04988e-05
9.95434e-07
-1.05902e-05
-9.82424e-07
-1.06421e-05
-3.0402e-06
-1.06301e-05
-5.22192e-06
-1.04046e-05
-7.52527e-06
-9.64665e-06
-9.80755e-06
-7.89594e-06
-1.15367e-05
-4.80855e-06
-1.14373e-05
-1.03415e-06
-7.41004e-06
-1.48884e-08
-8.55421e-07
2.85685e-06
-2.20781e-06
5.31196e-06
-3.68429e-06
7.01548e-06
-5.1139e-06
8.42524e-06
-6.3397e-06
9.17702e-06
-7.2585e-06
9.04066e-06
-7.85536e-06
8.101e-06
-8.18224e-06
6.61946e-06
-8.32487e-06
4.84889e-06
-8.37737e-06
2.96162e-06
-8.42749e-06
1.04556e-06
-8.51944e-06
-8.90475e-07
-8.66565e-06
-2.894e-06
-8.8824e-06
-5.00517e-06
-9.11017e-06
-7.2975e-06
-9.10565e-06
-9.81206e-06
-8.35274e-06
-1.22896e-05
-6.14841e-06
-1.36416e-05
-2.20666e-06
-1.13518e-05
-2.22155e-06
-7.26562e-07
3.58341e-06
-1.90334e-06
6.48873e-06
-3.1379e-06
8.25004e-06
-4.26094e-06
9.54828e-06
-5.16134e-06
1.00774e-05
-5.78365e-06
9.66297e-06
-6.14349e-06
8.46084e-06
-6.30688e-06
6.78285e-06
-6.36107e-06
4.90308e-06
-6.38623e-06
2.98678e-06
-6.43007e-06
1.08941e-06
-6.51333e-06
-8.0722e-07
-6.66002e-06
-2.74731e-06
-6.9102e-06
-4.755e-06
-7.28533e-06
-6.92236e-06
-7.68628e-06
-9.41111e-06
-7.67871e-06
-1.22972e-05
-6.44755e-06
-1.48727e-05
-3.32333e-06
-1.4476e-05
-5.54488e-06
-4.90711e-07
4.07412e-06
-1.38846e-06
7.38648e-06
-2.32231e-06
9.18389e-06
-3.13129e-06
1.03573e-05
-3.74493e-06
1.06911e-05
-4.14502e-06
1.00631e-05
-4.36361e-06
8.67943e-06
-4.46509e-06
6.88433e-06
-4.5217e-06
4.95969e-06
-4.58435e-06
3.04943e-06
-4.66789e-06
1.17294e-06
-4.76957e-06
-7.0553e-07
-4.90478e-06
-2.6121e-06
-5.11046e-06
-4.54933e-06
-5.46007e-06
-6.57275e-06
-5.9723e-06
-8.89888e-06
-6.3977e-06
-1.18718e-05
-5.96368e-06
-1.53068e-05
-3.76768e-06
-1.6672e-05
-9.31256e-06
-1.91064e-07
4.26518e-06
-7.54684e-07
7.9501e-06
-1.36802e-06
9.79723e-06
-1.87912e-06
1.08684e-05
-2.24764e-06
1.10596e-05
-2.48147e-06
1.02969e-05
-2.6169e-06
8.81486e-06
-2.70407e-06
6.9715e-06
-2.78974e-06
5.04536e-06
-2.89943e-06
3.15911e-06
-3.03258e-06
1.3061e-06
-3.17695e-06
-5.61163e-07
-3.33182e-06
-2.45723e-06
-3.51625e-06
-4.36489e-06
-3.80367e-06
-6.28534e-06
-4.30057e-06
-8.40198e-06
-4.93479e-06
-1.12376e-05
-5.05198e-06
-1.51896e-05
-3.4928e-06
-1.82312e-05
-1.28054e-05
1.14407e-07
4.15078e-06
-8.73819e-08
8.15189e-06
-3.89846e-07
1.00997e-05
-6.29145e-07
1.11077e-05
-7.80404e-07
1.12108e-05
-8.66351e-07
1.03828e-05
-9.2496e-07
8.87346e-06
-9.92253e-07
7.0388e-06
-1.0899e-06
5.143e-06
-1.22344e-06
3.29265e-06
-1.38942e-06
1.47209e-06
-1.58078e-06
-3.69808e-07
-1.79044e-06
-2.24757e-06
-2.01924e-06
-4.13609e-06
-2.30995e-06
-5.99463e-06
-2.78817e-06
-7.92376e-06
-3.51969e-06
-1.0506e-05
-4.01069e-06
-1.46986e-05
-3.00712e-06
-1.92348e-05
-1.58125e-05
3.66295e-07
3.78448e-06
5.16121e-07
8.00206e-06
5.47209e-07
1.00686e-05
5.88142e-07
1.10667e-05
6.55292e-07
1.11437e-05
7.17605e-07
1.03205e-05
7.4313e-07
8.84794e-06
7.16294e-07
7.06563e-06
6.35693e-07
5.2236e-06
5.0635e-07
3.42199e-06
3.30095e-07
1.64834e-06
1.03145e-07
-1.42858e-07
-1.70994e-07
-1.97343e-06
-4.96421e-07
-3.81066e-06
-8.84577e-07
-5.60647e-06
-1.40278e-06
-7.40556e-06
-2.2177e-06
-9.69111e-06
-2.99356e-06
-1.39227e-05
-2.48439e-06
-1.97439e-05
-1.82969e-05
5.48456e-07
3.23602e-06
1.02059e-06
7.52993e-06
1.35844e-06
9.73076e-06
1.68069e-06
1.07445e-05
1.98906e-06
1.08353e-05
2.23219e-06
1.00774e-05
2.37962e-06
8.7005e-06
2.43128e-06
7.01397e-06
2.40163e-06
5.25325e-06
2.30179e-06
3.52184e-06
2.12896e-06
1.82117e-06
1.86439e-06
1.21707e-07
1.51386e-06
-1.62289e-06
1.07553e-06
-3.37233e-06
5.49085e-07
-5.08003e-06
-1.31936e-07
-6.72454e-06
-1.03184e-06
-8.79121e-06
-2.01786e-06
-1.29367e-05
-1.97493e-06
-1.97869e-05
-2.02718e-05
6.23381e-07
2.61264e-06
1.35717e-06
6.79614e-06
1.98605e-06
9.10187e-06
2.59036e-06
1.01402e-05
3.16018e-06
1.02655e-05
3.63151e-06
9.60608e-06
3.96118e-06
8.37083e-06
4.1464e-06
6.82875e-06
4.20639e-06
5.19326e-06
4.1575e-06
3.57073e-06
3.99678e-06
1.98189e-06
3.71015e-06
4.08338e-07
3.27979e-06
-1.19253e-06
2.70947e-06
-2.80202e-06
2.00305e-06
-4.3736e-06
1.17689e-06
-5.89838e-06
1.21179e-07
-7.73549e-06
-1.10594e-06
-1.17096e-05
-1.49982e-06
-1.9393e-05
-2.17716e-05
5.66213e-07
2.04643e-06
1.43595e-06
5.9264e-06
2.30352e-06
8.2343e-06
3.18834e-06
9.25534e-06
4.05216e-06
9.40168e-06
4.80894e-06
8.8493e-06
5.3913e-06
7.78847e-06
5.78003e-06
6.44002e-06
5.98711e-06
4.98618e-06
6.02922e-06
3.52863e-06
5.90721e-06
2.10389e-06
5.60478e-06
7.10772e-07
5.09708e-06
-6.84837e-07
4.39291e-06
-2.09784e-06
3.49152e-06
-3.47222e-06
2.43483e-06
-4.84169e-06
1.17126e-06
-6.47192e-06
-2.98987e-07
-1.02393e-05
-1.0222e-06
-1.86698e-05
-2.27938e-05
3.89869e-07
1.65656e-06
1.24931e-06
5.06696e-06
2.33099e-06
7.15263e-06
3.50426e-06
8.08208e-06
4.68535e-06
8.22059e-06
5.76193e-06
7.77272e-06
6.64124e-06
6.90917e-06
7.28314e-06
5.79811e-06
7.68436e-06
4.58496e-06
7.85481e-06
3.35818e-06
7.79733e-06
2.16137e-06
7.50658e-06
1.00152e-06
6.92809e-06
-1.06346e-07
6.09514e-06
-1.26489e-06
4.99506e-06
-2.37214e-06
3.69153e-06
-3.53816e-06
2.24083e-06
-5.02122e-06
6.79963e-07
-8.67847e-06
-2.8038e-07
-1.77094e-05
-2.30742e-05
3.6682e-08
1.61988e-06
6.11716e-07
4.49193e-06
1.7777e-06
5.98664e-06
3.2362e-06
6.62358e-06
4.78192e-06
6.67487e-06
6.23533e-06
6.3193e-06
7.47095e-06
5.67354e-06
8.43131e-06
4.83776e-06
9.09049e-06
3.92578e-06
9.44976e-06
2.99891e-06
9.50159e-06
2.10955e-06
9.2475e-06
1.2556e-06
8.68149e-06
4.59672e-07
7.7565e-06
-3.3991e-07
6.52464e-06
-1.14028e-06
5.03793e-06
-2.05145e-06
3.4696e-06
-3.45289e-06
1.95689e-06
-7.16576e-06
5.39017e-07
-1.62916e-05
-2.25352e-05
-4.52215e-07
2.07209e-06
-6.56526e-09
4.04628e-06
1.14145e-06
4.83863e-06
2.80909e-06
4.95593e-06
4.66003e-06
4.82393e-06
6.43333e-06
4.546e-06
7.97437e-06
4.1325e-06
9.21622e-06
3.59591e-06
1.01151e-05
3.02689e-06
1.06737e-05
2.44035e-06
1.08834e-05
1.89981e-06
1.07609e-05
1.37807e-06
1.0302e-05
9.18556e-07
9.51816e-06
4.43979e-07
8.43454e-06
-5.66589e-08
7.0972e-06
-7.14111e-07
5.72213e-06
-2.07781e-06
4.1452e-06
-5.58883e-06
1.92276e-06
-1.40691e-05
-2.06124e-05
-4.1132e-06
6.1853e-06
-3.67187e-06
3.60494e-06
-1.5704e-06
2.73716e-06
8.61449e-07
2.52408e-06
3.26633e-06
2.41906e-06
5.54644e-06
2.26589e-06
7.60387e-06
2.07507e-06
9.36975e-06
1.83003e-06
1.08055e-05
1.5911e-06
1.19183e-05
1.32757e-06
1.27102e-05
1.10792e-06
1.32147e-05
8.73602e-07
1.34264e-05
7.06797e-07
1.33712e-05
4.99174e-07
1.29984e-05
3.16154e-07
1.23404e-05
-5.61165e-08
1.14523e-05
-1.18965e-06
9.88875e-06
-4.02532e-06
5.54438e-06
-9.72475e-06
-1.5068e-05
6.1853e-06
9.79024e-06
1.25274e-05
1.50515e-05
1.74705e-05
1.97364e-05
2.18115e-05
2.36415e-05
2.52326e-05
2.65602e-05
2.76681e-05
2.85417e-05
2.92485e-05
2.97477e-05
3.00639e-05
3.00077e-05
2.88181e-05
2.47928e-05
1.5068e-05
)
;

boundaryField
{
    movingWall
    {
        type            calculated;
        value           uniform 0;
    }
    fixedWalls
    {
        type            calculated;
        value           uniform 0;
    }
    frontAndBack
    {
        type            empty;
        value           nonuniform List<scalar> 0();
    }
}


// ************************************************************************* //
