/*--------------------------------*- C++ -*----------------------------------*\
| =========                 |                                                 |
| \\      /  F ield         | OpenFOAM: The Open Source CFD Toolbox           |
|  \\    /   O peration     | Version:  2212                                  |
|   \\  /    A nd           | Website:  www.openfoam.com                      |
|    \\/     M anipulation  |                                                 |
\*---------------------------------------------------------------------------*/
FoamFile
{
    version     2.0;
    format      ascii;
    arch        "LSB;label=32;scalar=64";
    class       volVectorField;
    location    "1.44";
    object      U;
}
// * * * * * * * * * * * * * * * * * * * * * * * * * * * * * * * * * * * * * //

dimensions      [0 1 -1 0 0 0 0];

internalField   nonuniform List<vector> 
400
(
(0.000538358 -0.000639802 0)
(0.000994586 -0.000466554 0)
(0.000399389 -0.000198573 0)
(-0.00115726 0.000102898 0)
(-0.00408691 0.000599924 0)
(-0.00904422 0.00141534 0)
(-0.0166302 0.0026293 0)
(-0.0269857 0.00414372 0)
(-0.0392246 0.00546604 0)
(-0.0511111 0.00575023 0)
(-0.059642 0.00435014 0)
(-0.0622394 0.00147804 0)
(-0.0574371 -0.00188405 0)
(-0.044933 -0.00515351 0)
(-0.0273687 -0.00706096 0)
(-0.00787595 -0.00654195 0)
(0.00763605 -0.00378268 0)
(0.0137449 0.0010116 0)
(0.00984618 0.00369116 0)
(0.00287761 0.00288734 0)
(-0.000156608 -0.000907248 0)
(-0.00211533 0.000792889 0)
(-0.00686008 0.00262773 0)
(-0.0141838 0.00489841 0)
(-0.025064 0.00820065 0)
(-0.0405312 0.0126152 0)
(-0.0605796 0.0175312 0)
(-0.0833139 0.0213922 0)
(-0.104993 0.0220345 0)
(-0.121477 0.0179708 0)
(-0.12981 0.00947509 0)
(-0.128624 -0.00168372 0)
(-0.11814 -0.0134848 0)
(-0.0984449 -0.0240368 0)
(-0.0717266 -0.0302537 0)
(-0.0406633 -0.0291271 0)
(-0.0103538 -0.0194048 0)
(0.00984948 -0.0031067 0)
(0.0116797 0.00947678 0)
(0.00401415 0.00953463 0)
(-0.00137216 0.00152316 0)
(-0.00702393 0.00683253 0)
(-0.0172422 0.0118386 0)
(-0.031174 0.0181415 0)
(-0.0500536 0.0265442 0)
(-0.0744167 0.0360254 0)
(-0.102616 0.0439646 0)
(-0.130883 0.0469827 0)
(-0.154929 0.042584 0)
(-0.171703 0.0306101 0)
(-0.179723 0.012944 0)
(-0.17872 -0.00793905 0)
(-0.16905 -0.0297563 0)
(-0.150492 -0.04945 0)
(-0.123278 -0.0628189 0)
(-0.0880988 -0.0645635 0)
(-0.0476777 -0.0498355 0)
(-0.0098311 -0.0195533 0)
(0.00738188 0.00986252 0)
(0.00373939 0.0160555 0)
(-0.00278443 0.00727297 0)
(-0.0123736 0.0179467 0)
(-0.0279805 0.026992 0)
(-0.0479058 0.0381807 0)
(-0.0732573 0.0519709 0)
(-0.103662 0.0654419 0)
(-0.136086 0.0738844 0)
(-0.166084 0.0731575 0)
(-0.190058 0.0619732 0)
(-0.206362 0.0420788 0)
(-0.214681 0.0161716 0)
(-0.215467 -0.0134913 0)
(-0.209221 -0.0446212 0)
(-0.195394 -0.0740992 0)
(-0.172648 -0.0974317 0)
(-0.139294 -0.107683 0)
(-0.0945859 -0.0958094 0)
(-0.0419795 -0.0554297 0)
(-0.000199969 -0.0013128 0)
(0.00431608 0.0202004 0)
(-0.00399437 0.0160849 0)
(-0.0169476 0.0336252 0)
(-0.0369041 0.0471799 0)
(-0.0612121 0.0633694 0)
(-0.0906438 0.0817645 0)
(-0.123814 0.0972092 0)
(-0.156572 0.103554 0)
(-0.184381 0.0972648 0)
(-0.204852 0.079121 0)
(-0.217952 0.0524013 0)
(-0.224676 0.0199635 0)
(-0.226326 -0.0162941 0)
(-0.223673 -0.0545098 0)
(-0.216164 -0.0924298 0)
(-0.202043 -0.126684 0)
(-0.177539 -0.150348 0)
(-0.138414 -0.151221 0)
(-0.0820766 -0.113193 0)
(-0.0158622 -0.0323384 0)
(0.00597647 0.0201843 0)
(-0.00466636 0.0271823 0)
(-0.0197316 0.052565 0)
(-0.0422005 0.070632 0)
(-0.0684331 0.0911843 0)
(-0.098689 0.112611 0)
(-0.13063 0.127798 0)
(-0.159523 0.13021 0)
(-0.181481 0.117801 0)
(-0.195666 0.0933632 0)
(-0.203515 0.0612589 0)
(-0.207063 0.0245914 0)
(-0.208149 -0.0147563 0)
(-0.207745 -0.0556948 0)
(-0.205934 -0.0978109 0)
(-0.201648 -0.140106 0)
(-0.190203 -0.178016 0)
(-0.164669 -0.199179 0)
(-0.117824 -0.180208 0)
(-0.0476443 -0.0942806 0)
(0.00450618 0.0109646 0)
(-0.00454819 0.0392348 0)
(-0.0199858 0.0728678 0)
(-0.0426267 0.0949432 0)
(-0.0679469 0.118554 0)
(-0.0957821 0.141116 0)
(-0.12331 0.154224 0)
(-0.145957 0.151707 0)
(-0.161005 0.133195 0)
(-0.169029 0.103191 0)
(-0.172285 0.0669314 0)
(-0.172928 0.0278538 0)
(-0.17258 -0.0120715 0)
(-0.172315 -0.0523263 0)
(-0.173246 -0.0938741 0)
(-0.17566 -0.138123 0)
(-0.176011 -0.184854 0)
(-0.166418 -0.225788 0)
(-0.137119 -0.236297 0)
(-0.0823955 -0.172189 0)
(-0.00573373 -0.0126189 0)
(-0.00356938 0.0506269 0)
(-0.0175096 0.0924208 0)
(-0.0380333 0.117747 0)
(-0.0600422 0.142933 0)
(-0.0832226 0.165026 0)
(-0.104864 0.175023 0)
(-0.121149 0.167454 0)
(-0.130652 0.143447 0)
(-0.134892 0.108834 0)
(-0.136225 0.0694079 0)
(-0.136199 0.028601 0)
(-0.135526 -0.0117871 0)
(-0.134746 -0.0511401 0)
(-0.135395 -0.0900957 0)
(-0.139329 -0.131171 0)
(-0.145768 -0.178657 0)
(-0.148184 -0.231651 0)
(-0.135535 -0.270343 0)
(-0.100068 -0.240384 0)
(-0.0243634 -0.0605276 0)
(-0.00188947 0.0597651 0)
(-0.0127193 0.109178 0)
(-0.0293393 0.137008 0)
(-0.0464625 0.162482 0)
(-0.0638563 0.183119 0)
(-0.0793745 0.189927 0)
(-0.0902803 0.17816 0)
(-0.0962399 0.150045 0)
(-0.0990984 0.112228 0)
(-0.10076 0.0706591 0)
(-0.101867 0.0284231 0)
(-0.102141 -0.0130215 0)
(-0.101523 -0.052672 0)
(-0.101193 -0.0898672 0)
(-0.103827 -0.126404 0)
(-0.111454 -0.169208 0)
(-0.120644 -0.225708 0)
(-0.119764 -0.286229 0)
(-0.0994602 -0.295241 0)
(-0.0334139 -0.134963 0)
(0.000125339 0.0654221 0)
(-0.00644178 0.121629 0)
(-0.0179769 0.151529 0)
(-0.0293854 0.176515 0)
(-0.0405429 0.195411 0)
(-0.0501232 0.199725 0)
(-0.0565481 0.185271 0)
(-0.0602122 0.154848 0)
(-0.0627344 0.11542 0)
(-0.0652706 0.0728295 0)
(-0.0677135 0.0297118 0)
(-0.0693276 -0.0128749 0)
(-0.06986 -0.0536887 0)
(-0.0697715 -0.0907056 0)
(-0.0713672 -0.123796 0)
(-0.0780996 -0.159924 0)
(-0.0906322 -0.213185 0)
(-0.0977115 -0.287342 0)
(-0.0907331 -0.333479 0)
(-0.0298074 -0.210349 0)
(0.00202648 0.0667984 0)
(0.000263084 0.128648 0)
(-0.00557908 0.16042 0)
(-0.0110159 0.184445 0)
(-0.0158548 0.201655 0)
(-0.0195937 0.204514 0)
(-0.0217736 0.189099 0)
(-0.0232554 0.158259 0)
(-0.0251387 0.118785 0)
(-0.0278438 0.0761877 0)
(-0.0308988 0.0327905 0)
(-0.0337017 -0.0105265 0)
(-0.0361141 -0.0524046 0)
(-0.0379756 -0.0900007 0)
(-0.0406658 -0.121414 0)
(-0.0471658 -0.151693 0)
(-0.061726 -0.198313 0)
(-0.0739891 -0.27931 0)
(-0.0791234 -0.357094 0)
(-0.0228185 -0.272618 0)
(0.0034847 0.0641302 0)
(0.00644786 0.130063 0)
(0.00632798 0.163661 0)
(0.00673309 0.186682 0)
(0.0081281 0.202449 0)
(0.0102669 0.204823 0)
(0.0126743 0.189864 0)
(0.0141255 0.160091 0)
(0.0139029 0.121737 0)
(0.0120842 0.0799255 0)
(0.00931597 0.0369393 0)
(0.00571368 -0.00626904 0)
(0.00128794 -0.0480078 0)
(-0.0036672 -0.0853638 0)
(-0.00974804 -0.11597 0)
(-0.0180656 -0.142094 0)
(-0.035344 -0.181398 0)
(-0.051312 -0.26444 0)
(-0.0680854 -0.369501 0)
(-0.0152468 -0.324949 0)
(0.0041254 0.0582928 0)
(0.011031 0.126046 0)
(0.0161904 0.160979 0)
(0.0219595 0.182668 0)
(0.0292176 0.196837 0)
(0.0371939 0.199343 0)
(0.0447188 0.186168 0)
(0.0502464 0.158973 0)
(0.0529974 0.123002 0)
(0.0531067 0.0829576 0)
(0.0512146 0.041303 0)
(0.0471156 -0.000836853 0)
(0.0410424 -0.0412536 0)
(0.0326727 -0.0772353 0)
(0.0217011 -0.106436 0)
(0.00946247 -0.129366 0)
(-0.0116742 -0.162459 0)
(-0.0294397 -0.244244 0)
(-0.0578682 -0.372189 0)
(-0.00746983 -0.367408 0)
(0.00378906 0.0506911 0)
(0.0131972 0.117643 0)
(0.0228249 0.153593 0)
(0.0332793 0.173948 0)
(0.0457831 0.186131 0)
(0.0593741 0.188565 0)
(0.0723231 0.17772 0)
(0.0827519 0.154123 0)
(0.0895285 0.121702 0)
(0.0924647 0.0845895 0)
(0.0919592 0.0455217 0)
(0.0878835 0.00606878 0)
(0.0801987 -0.031416 0)
(0.0685817 -0.0648209 0)
(0.0529262 -0.0919128 0)
(0.035344 -0.11231 0)
(0.00906452 -0.140114 0)
(-0.00805226 -0.219842 0)
(-0.0486041 -0.369212 0)
(0.000872161 -0.404007 0)
(0.00248617 0.0431603 0)
(0.0121784 0.106514 0)
(0.0245063 0.141249 0)
(0.0385518 0.159246 0)
(0.0554587 0.168841 0)
(0.0741963 0.170645 0)
(0.0925915 0.162121 0)
(0.108361 0.142874 0)
(0.119864 0.115387 0)
(0.126404 0.0829621 0)
(0.127923 0.0483372 0)
(0.124432 0.0134514 0)
(0.115426 -0.0196083 0)
(0.101186 -0.0489725 0)
(0.0811687 -0.0728209 0)
(0.0587438 -0.0913617 0)
(0.0274869 -0.11522 0)
(0.0130698 -0.193131 0)
(-0.0398656 -0.363972 0)
(0.010775 -0.436753 0)
(0.000338781 0.0372311 0)
(0.0082535 0.0954429 0)
(0.0218434 0.128215 0)
(0.0384669 0.143414 0)
(0.0586607 0.149656 0)
(0.081335 0.149627 0)
(0.104224 0.142297 0)
(0.124765 0.12693 0)
(0.140836 0.104787 0)
(0.151252 0.0781955 0)
(0.155291 0.0495033 0)
(0.153167 0.0206902 0)
(0.143702 -0.00668133 0)
(0.127982 -0.0305469 0)
(0.104813 -0.0500115 0)
(0.0790793 -0.0664728 0)
(0.0443477 -0.0887593 0)
(0.0330727 -0.167034 0)
(-0.0305569 -0.359379 0)
(0.0245447 -0.465039 0)
(-0.0029878 0.038442 0)
(-0.0018622 0.086373 0)
(0.0096331 0.10929 0)
(0.0290265 0.119627 0)
(0.0529553 0.122948 0)
(0.0795438 0.121622 0)
(0.106427 0.115514 0)
(0.131147 0.10404 0)
(0.151328 0.08779 0)
(0.165506 0.0681724 0)
(0.172366 0.0470439 0)
(0.17203 0.0259059 0)
(0.163252 0.00614328 0)
(0.148251 -0.0111198 0)
(0.123906 -0.0253953 0)
(0.0981298 -0.0399474 0)
(0.0625627 -0.0632456 0)
(0.0529483 -0.143569 0)
(-0.0145346 -0.350209 0)
(0.0471159 -0.478957 0)
(-0.00682065 0.0296048 0)
(-0.00804463 0.0868501 0)
(-0.000450726 0.103434 0)
(0.01885 0.104104 0)
(0.0446136 0.101022 0)
(0.0732321 0.0966079 0)
(0.102269 0.0905124 0)
(0.129188 0.0817425 0)
(0.151902 0.0706103 0)
(0.169043 0.0574813 0)
(0.178657 0.0438957 0)
(0.182065 0.0304576 0)
(0.176193 0.0187031 0)
(0.166446 0.00809571 0)
(0.145761 -0.00101713 0)
(0.128337 -0.0142344 0)
(0.0946667 -0.0411386 0)
(0.085403 -0.12566 0)
(0.0261876 -0.320441 0)
(0.0881754 -0.451521 0)
(-0.100964 0.0904564 0)
(-0.0749114 0.0735056 0)
(-0.0549811 0.0640242 0)
(-0.0173956 0.0609489 0)
(0.0204884 0.0582613 0)
(0.0588888 0.0551782 0)
(0.0953781 0.0516538 0)
(0.130581 0.0469391 0)
(0.160179 0.0416417 0)
(0.187865 0.0353779 0)
(0.206035 0.029366 0)
(0.223863 0.0233589 0)
(0.228461 0.0186445 0)
(0.237019 0.0142928 0)
(0.226911 0.0101432 0)
(0.228079 0.0010475 0)
(0.196963 -0.0234034 0)
(0.197323 -0.0879246 0)
(0.142765 -0.228453 0)
(0.169104 -0.34087 0)
(0.133169 0.106687 0)
(0.165366 0.0818892 0)
(0.222687 0.0600938 0)
(0.279277 0.0468253 0)
(0.325973 0.0389618 0)
(0.369827 0.0333641 0)
(0.405846 0.0294734 0)
(0.443697 0.0258837 0)
(0.471812 0.0233161 0)
(0.50433 0.0203315 0)
(0.523017 0.0184365 0)
(0.549781 0.0156969 0)
(0.557689 0.0145708 0)
(0.579304 0.0120488 0)
(0.574348 0.0115938 0)
(0.588306 0.00747431 0)
(0.557797 0.00280059 0)
(0.544437 -0.0160892 0)
(0.438464 -0.049085 0)
(0.339052 -0.10075 0)
)
;

boundaryField
{
    movingWall
    {
        type            fixedValue;
        value           uniform (1 0 0);
    }
    fixedWalls
    {
        type            noSlip;
    }
    frontAndBack
    {
        type            empty;
    }
}


// ************************************************************************* //
