/*--------------------------------*- C++ -*----------------------------------*\
| =========                 |                                                 |
| \\      /  F ield         | OpenFOAM: The Open Source CFD Toolbox           |
|  \\    /   O peration     | Version:  2212                                  |
|   \\  /    A nd           | Website:  www.openfoam.com                      |
|    \\/     M anipulation  |                                                 |
\*---------------------------------------------------------------------------*/
FoamFile
{
    version     2.0;
    format      ascii;
    arch        "LSB;label=32;scalar=64";
    class       volScalarField;
    location    "0.04";
    object      p;
}
// * * * * * * * * * * * * * * * * * * * * * * * * * * * * * * * * * * * * * //

dimensions      [0 2 -2 0 0 0 0];

internalField   nonuniform List<scalar> 
400
(
-7.90166e-10
5.75809e-05
0.000199298
0.000421809
0.000718995
0.00108325
0.00150538
0.0019748
0.00247974
0.00300752
0.00354479
0.0040778
0.00459269
0.00507583
0.00551412
0.00589539
0.00620879
0.00644516
0.0065969
0.00665953
-5.87947e-05
-2.83129e-07
0.000144167
0.000370633
0.000672893
0.0010433
0.00147256
0.00194993
0.00246348
0.00300034
0.00354699
0.00408948
0.00461372
0.00510583
0.00555247
0.00594118
0.00626084
0.00650209
0.00665713
0.006721
-0.00020595
-0.00014501
5.7924e-06
0.000242048
0.000557209
0.000943317
0.00139069
0.00188819
0.00242344
0.00298315
0.00355332
0.0041195
0.00466707
0.00518156
0.00564899
0.00605622
0.00639147
0.00664471
0.00680755
0.00687445
-0.000444655
-0.000379612
-0.000218607
3.35198e-05
0.000369675
0.000781314
0.00125811
0.00178823
0.00235862
0.00295527
0.00356346
0.00416795
0.00475329
0.00530408
0.00580529
0.0062427
0.00660339
0.00687623
0.00705185
0.007124
-0.000780486
-0.000709651
-0.000534255
-0.000259722
0.000106048
0.000553632
0.00107175
0.00164761
0.00226719
0.00291552
0.0035769
0.00423509
0.00487349
0.00547542
0.00602443
0.00650472
0.0069017
0.00720264
0.00739668
0.00747651
-0.00122229
-0.00114375
-0.000949257
-0.000645055
-0.000240186
0.000254695
0.000827013
0.00146268
0.00214644
0.00286215
0.00359293
0.0043213
0.00502929
0.00569863
0.00631101
0.00684851
0.00729424
0.00763314
0.00785219
0.00794256
-0.00178185
-0.0016934
-0.00147436
-0.0011322
-0.000677534
-0.000122719
0.000517949
0.00122873
0.00199287
0.00279283
0.00361044
0.00442685
0.00522254
0.00597737
0.00667075
0.00728203
0.0077912
0.00817995
0.00843209
0.00853651
-0.0024744
-0.00237336
-0.00212332
-0.00173344
-0.00121662
-0.000587513
0.000137305
0.000940045
0.00180216
0.00270461
0.00362785
0.00455168
0.00545501
0.00631565
0.00711032
0.00781496
0.00840542
0.00885881
0.00915432
0.00927737
-0.00331929
-0.00320236
-0.00291334
-0.00246396
-0.00187031
-0.00115029
-0.000323445
0.000589905
0.00156918
0.00259377
0.00364287
0.00469514
0.00572805
0.00671741
0.00763699
0.00845855
0.00915255
0.00968964
0.0100421
0.01019
-0.00434117
-0.00420401
-0.00386582
-0.00334215
-0.00265383
-0.00182325
-0.000873901
0.000170812
0.00128808
0.00245581
0.00365229
0.00485549
0.00604196
0.00718585
0.00825795
0.00922523
0.0100511
0.0106973
0.0111255
0.0113071
-0.00557148
-0.0054082
-0.00500715
-0.00439003
-0.00358469
-0.00261988
-0.0015243
-0.00032511
0.000952572
0.00228551
0.00365172
0.00502936
0.00639508
0.00772225
0.00897918
0.0101276
0.0111224
0.0119123
0.0124435
0.012672
-0.00705112
-0.00685313
-0.00637001
-0.0056336
-0.00468245
-0.0035543
-0.00228472
-0.00090533
0.000556514
0.00207712
0.00363538
0.00521107
0.00678259
0.00832426
0.00980329
0.0111767
0.0123891
0.013372
0.0140469
0.0143439
-0.00883469
-0.00858867
-0.00799502
-0.00710315
-0.00596803
-0.00464008
-0.00316372
-0.00157566
9.48986e-05
0.00182501
0.00359615
0.00539186
0.00719486
0.00898329
0.0107262
0.0123781
0.013873
0.0151201
0.0160032
0.016406
-0.0109981
-0.0106819
-0.00993316
-0.00883325
-0.00746229
-0.00588814
-0.00416618
-0.00233839
-0.000434684
0.00152456
0.0035258
0.00555931
0.00761563
0.00968117
0.0117321
0.0137256
0.0155887
0.0172046
0.0184023
0.0189814
-0.0136534
-0.0132265
-0.0122488
-0.0108618
-0.00918309
-0.00730325
-0.00528994
-0.00318934
-0.00102984
0.00117367
0.00341576
0.00569697
0.00802015
0.0103859
0.0127858
0.0151906
0.0175314
0.0196698
0.021362
0.0222656
-0.0169814
-0.0163588
-0.0150225
-0.0132268
-0.0111396
-0.00887793
-0.00652046
-0.00411379
-0.00168025
0.000775004
0.00325857
0.005785
0.00837408
0.0110475
0.0138234
0.0167044
0.0196513
0.0225313
0.0250259
0.0265887
-0.0213113
-0.0202849
-0.0183521
-0.0159582
-0.0133221
-0.0105831
-0.00782358
-0.00508125
-0.00236408
0.000338806
0.00305038
0.00580218
0.00863442
0.0115955
0.0147419
0.0181321
0.021804
0.0256997
0.0294747
0.0324207
-0.0274782
-0.0253343
-0.0223534
-0.0190656
-0.0156863
-0.012355
-0.00913646
-0.00603993
-0.00304429
-0.000113916
0.0027949
0.00573063
0.0087551
0.0119434
0.0153947
0.0192436
0.0236584
0.0287708
0.0343729
0.0404169
-0.0357265
-0.032027
-0.0271587
-0.022434
-0.0180535
-0.0140222
-0.0103199
-0.00688553
-0.00364663
-0.00053407
0.00251874
0.0055802
0.00872048
0.0120353
0.0156589
0.01981
0.0248377
0.0313951
0.0400569
0.0553045
-0.0574806
-0.0375022
-0.0293866
-0.0241564
-0.0192892
-0.0148637
-0.01091
-0.00730967
-0.00395415
-0.000757254
0.00235801
0.00546491
0.00864311
0.0119971
0.0156974
0.0201307
0.0260986
0.0360799
0.052525
0.0860363
)
;

boundaryField
{
    movingWall
    {
        type            zeroGradient;
    }
    fixedWalls
    {
        type            zeroGradient;
    }
    frontAndBack
    {
        type            empty;
    }
}


// ************************************************************************* //
