/*--------------------------------*- C++ -*----------------------------------*\
| =========                 |                                                 |
| \\      /  F ield         | OpenFOAM: The Open Source CFD Toolbox           |
|  \\    /   O peration     | Version:  2212                                  |
|   \\  /    A nd           | Website:  www.openfoam.com                      |
|    \\/     M anipulation  |                                                 |
\*---------------------------------------------------------------------------*/
FoamFile
{
    version     2.0;
    format      ascii;
    arch        "LSB;label=32;scalar=64";
    class       volScalarField;
    location    "3.12";
    object      p;
}
// * * * * * * * * * * * * * * * * * * * * * * * * * * * * * * * * * * * * * //

dimensions      [0 2 -2 0 0 0 0];

internalField   nonuniform List<scalar> 
400
(
2.65004e-08
-0.000147098
-0.000515916
-0.00103369
-0.00167157
-0.00240359
-0.00307063
-0.00346902
-0.00343114
-0.00280583
-0.00144642
0.000673278
0.00325392
0.0054974
0.00654858
0.00601979
0.0041912
0.00239578
0.00137012
0.00129253
0.000117062
-5.16787e-05
-0.000356822
-0.000732239
-0.00119897
-0.00181899
-0.00259975
-0.00339546
-0.00390128
-0.00375434
-0.00268827
-0.000715039
0.00174904
0.00399748
0.0051872
0.00487699
0.00332787
0.00164158
0.00086698
0.000942811
0.000517331
0.000260643
-6.63109e-05
-0.000531153
-0.00128623
-0.00246231
-0.004023
-0.00570588
-0.00706254
-0.00758258
-0.00692644
-0.00517167
-0.00265937
-6.91559e-06
0.00197054
0.00263648
0.00196968
0.000792988
-9.87973e-05
-0.0001117
0.00109319
0.000701191
0.000183172
-0.000732865
-0.0023222
-0.00468521
-0.00760175
-0.0105953
-0.013081
-0.0145098
-0.0145486
-0.0132294
-0.0107594
-0.0075783
-0.00437033
-0.00187099
-0.000553754
-0.00040085
-0.000984125
-0.00161479
0.00146389
0.000889211
-4.16663e-05
-0.00182847
-0.00474172
-0.0087087
-0.0132352
-0.0176246
-0.0212344
-0.0236032
-0.0244709
-0.0237184
-0.0214567
-0.0179584
-0.0136477
-0.00912166
-0.00516729
-0.00260735
-0.00189492
-0.00368507
0.00114055
0.00034363
-0.0011865
-0.0041015
-0.00854337
-0.0141373
-0.0200725
-0.0255091
-0.0298407
-0.032748
-0.0341016
-0.0338031
-0.0319214
-0.0285915
-0.023943
-0.0181876
-0.0119169
-0.00652267
-0.00406352
-0.00615429
-0.000183519
-0.00121493
-0.00340601
-0.00743855
-0.0132406
-0.0200875
-0.0269211
-0.0328666
-0.0374261
-0.0404347
-0.0419004
-0.0418448
-0.0403272
-0.0374064
-0.0330484
-0.0271258
-0.0197478
-0.0121408
-0.00745288
-0.00741711
-0.00250963
-0.00372147
-0.00647807
-0.0113726
-0.0181144
-0.0256883
-0.0329004
-0.0389285
-0.0434152
-0.0463235
-0.0477466
-0.0477834
-0.0465104
-0.0439667
-0.0400898
-0.0346292
-0.0273103
-0.0186364
-0.0113385
-0.00766494
-0.00548033
-0.00677231
-0.00989694
-0.0153004
-0.0225211
-0.0303632
-0.0375959
-0.0434873
-0.0477999
-0.0505759
-0.0519457
-0.052023
-0.0508828
-0.0485752
-0.0450949
-0.0402607
-0.0336328
-0.0250238
-0.0160794
-0.00958244
-0.00855447
-0.00981978
-0.0130964
-0.0186692
-0.0259819
-0.0337792
-0.0408579
-0.0465635
-0.0507278
-0.0534207
-0.0547707
-0.0548733
-0.0537929
-0.0515938
-0.0483413
-0.0439984
-0.0382169
-0.0304319
-0.0215201
-0.0137461
-0.0112304
-0.0123973
-0.0156222
-0.0210835
-0.0282001
-0.0357685
-0.0426453
-0.0482088
-0.0523006
-0.0549738
-0.0563342
-0.0564545
-0.0553867
-0.0532011
-0.0500234
-0.0459575
-0.0409034
-0.0341857
-0.0262737
-0.0184291
-0.0132252
-0.0142094
-0.0172183
-0.0223166
-0.0290033
-0.0362175
-0.0429
-0.0484105
-0.0525286
-0.0552553
-0.0566578
-0.0567896
-0.0556944
-0.0534425
-0.0502119
-0.0462193
-0.0416707
-0.0358536
-0.0290787
-0.021602
-0.014503
-0.0151626
-0.017738
-0.0222607
-0.0283346
-0.0351058
-0.0416122
-0.0471581
-0.0514051
-0.0542639
-0.0557478
-0.0558881
-0.0547233
-0.0523457
-0.0489564
-0.0448363
-0.0405428
-0.0352125
-0.0293552
-0.0221393
-0.0151495
-0.0153623
-0.0172469
-0.0209229
-0.0261908
-0.0324319
-0.0387695
-0.0444231
-0.0489024
-0.0519886
-0.0536182
-0.0537925
-0.0525387
-0.0499699
-0.04633
-0.0419834
-0.0375497
-0.0322947
-0.0274116
-0.0197187
-0.0152864
-0.0150066
-0.0159357
-0.0184583
-0.0227008
-0.028306
-0.0344639
-0.0402834
-0.0450938
-0.0485126
-0.0503725
-0.0506221
-0.0492976
-0.0464943
-0.0425201
-0.0377879
-0.03295
-0.0275774
-0.0238485
-0.014155
-0.0150335
-0.0143346
-0.0140097
-0.015039
-0.018049
-0.0229208
-0.0288842
-0.0349128
-0.0401411
-0.0440014
-0.0462029
-0.0466252
-0.0452945
-0.0422777
-0.0379211
-0.0326586
-0.0272302
-0.0215554
-0.0181695
-0.00402521
-0.0144795
-0.0134824
-0.0116195
-0.0109677
-0.0126763
-0.0168097
-0.0225993
-0.0288694
-0.0345782
-0.0389749
-0.0416411
-0.0423615
-0.0411323
-0.037992
-0.0332398
-0.0272444
-0.0207247
-0.0137084
-0.00748024
0.0154186
-0.014493
-0.0126118
-0.0087247
-0.0063923
-0.00698252
-0.0105686
-0.0162892
-0.0228365
-0.029062
-0.0340594
-0.0373049
-0.0384653
-0.0374884
-0.034374
-0.0292651
-0.0221806
-0.0133344
-0.00162016
0.0154965
0.0560447
-0.0117995
-0.0118996
-0.00599644
-0.00217881
-0.00211549
-0.00553016
-0.0113562
-0.0182127
-0.0249216
-0.0304705
-0.0343048
-0.0360062
-0.0354815
-0.032461
-0.0267907
-0.0176648
-0.00386506
0.019272
0.0592866
0.128637
-0.0294998
-0.0107788
-0.000991622
0.00256449
0.00197682
-0.00181013
-0.00791207
-0.0150797
-0.0221421
-0.0280626
-0.0322635
-0.0343058
-0.0340584
-0.0311052
-0.0248
-0.0129565
0.00873707
0.0500229
0.121594
0.224989
)
;

boundaryField
{
    movingWall
    {
        type            zeroGradient;
    }
    fixedWalls
    {
        type            zeroGradient;
    }
    frontAndBack
    {
        type            empty;
    }
}


// ************************************************************************* //
