/*--------------------------------*- C++ -*----------------------------------*\
| =========                 |                                                 |
| \\      /  F ield         | OpenFOAM: The Open Source CFD Toolbox           |
|  \\    /   O peration     | Version:  2212                                  |
|   \\  /    A nd           | Website:  www.openfoam.com                      |
|    \\/     M anipulation  |                                                 |
\*---------------------------------------------------------------------------*/
FoamFile
{
    version     2.0;
    format      ascii;
    arch        "LSB;label=32;scalar=64";
    class       surfaceScalarField;
    location    "0.98";
    object      phi;
}
// * * * * * * * * * * * * * * * * * * * * * * * * * * * * * * * * * * * * * //

dimensions      [0 3 -1 0 0 0 0];

oriented        oriented;

internalField   nonuniform List<scalar> 
760
(
-2.61942e-08
2.61942e-08
-1.1974e-07
9.35458e-08
-2.43201e-07
1.23461e-07
-3.82527e-07
1.39326e-07
-5.42666e-07
1.60139e-07
-7.33795e-07
1.91129e-07
-9.63075e-07
2.2928e-07
-1.22693e-06
2.63852e-07
-1.50177e-06
2.74847e-07
-1.73845e-06
2.36671e-07
-1.86942e-06
1.30976e-07
-1.82579e-06
-4.36308e-08
-1.55738e-06
-2.68406e-07
-1.09639e-06
-4.6099e-07
-5.36807e-07
-5.59587e-07
-2.94603e-08
-5.07347e-07
2.85277e-07
-3.14737e-07
3.22576e-07
-3.72991e-08
1.60095e-07
1.62481e-07
1.60095e-07
-1.35411e-07
1.61605e-07
-4.05523e-07
3.63658e-07
-7.36004e-07
4.53941e-07
-1.10585e-06
5.09175e-07
-1.51847e-06
5.72755e-07
-1.97976e-06
6.52415e-07
-2.48373e-06
7.3325e-07
-3.00184e-06
7.8197e-07
-3.47678e-06
7.49782e-07
-3.82667e-06
5.86566e-07
-3.96622e-06
2.70525e-07
-3.82468e-06
-1.85177e-07
-3.35355e-06
-7.39528e-07
-2.57892e-06
-1.23562e-06
-1.61194e-06
-1.52657e-06
-6.46855e-07
-1.47243e-06
5.95638e-08
-1.02116e-06
3.40393e-07
-3.18128e-07
2.17567e-07
2.85307e-07
3.77662e-07
-2.2939e-07
3.90995e-07
-6.40498e-07
7.74766e-07
-1.12792e-06
9.41361e-07
-1.66527e-06
1.04653e-06
-2.25223e-06
1.15971e-06
-2.88731e-06
1.28749e-06
-3.55544e-06
1.40138e-06
-4.22385e-06
1.45038e-06
-4.84122e-06
1.36714e-06
-5.33594e-06
1.08129e-06
-5.61896e-06
5.53548e-07
-5.60495e-06
-1.99191e-07
-5.19267e-06
-1.1518e-06
-4.37083e-06
-2.05746e-06
-3.1994e-06
-2.69801e-06
-1.84542e-06
-2.8264e-06
-6.12919e-07
-2.25366e-06
1.15737e-07
-1.04678e-06
1.99314e-07
2.0173e-07
5.76976e-07
-2.93208e-07
6.84204e-07
-8.01242e-07
1.2828e-06
-1.39458e-06
1.5347e-06
-2.04264e-06
1.69459e-06
-2.74462e-06
1.86169e-06
-3.50145e-06
2.04432e-06
-4.30917e-06
2.2091e-06
-5.15967e-06
2.30088e-06
-6.03035e-06
2.23783e-06
-6.85046e-06
1.90139e-06
-7.47096e-06
1.17404e-06
-7.74597e-06
7.58268e-08
-7.53526e-06
-1.36252e-06
-6.80321e-06
-2.78951e-06
-5.54294e-06
-3.95828e-06
-3.83289e-06
-4.53645e-06
-1.93798e-06
-4.14858e-06
-4.08352e-07
-2.57641e-06
1.52453e-07
-3.59075e-07
7.29429e-07
-3.25731e-07
1.00993e-06
-8.86598e-07
1.84367e-06
-1.54036e-06
2.18847e-06
-2.25552e-06
2.40975e-06
-3.03742e-06
2.64359e-06
-3.90279e-06
2.90969e-06
-4.8757e-06
3.18202e-06
-5.97809e-06
3.40328e-06
-7.18701e-06
3.44674e-06
-8.37467e-06
3.08905e-06
-9.31975e-06
2.11912e-06
-9.78709e-06
5.43163e-07
-9.78384e-06
-1.36576e-06
-9.25403e-06
-3.31933e-06
-8.12948e-06
-5.08283e-06
-6.34678e-06
-6.31915e-06
-3.96193e-06
-6.53342e-06
-1.45158e-06
-5.08677e-06
4.07609e-09
-1.81473e-06
7.33505e-07
-3.27812e-07
1.33775e-06
-9.00343e-07
2.4162e-06
-1.5741e-06
2.86223e-06
-2.31946e-06
3.15511e-06
-3.1518e-06
3.47593e-06
-4.10774e-06
3.86563e-06
-5.23324e-06
4.30751e-06
-6.54782e-06
4.71785e-06
-7.97385e-06
4.87277e-06
-9.30373e-06
4.41894e-06
-1.03024e-05
3.11777e-06
-1.08352e-05
1.07595e-06
-1.09432e-05
-1.25769e-06
-1.068e-05
-3.58261e-06
-9.94043e-06
-5.82235e-06
-8.54183e-06
-7.71775e-06
-6.25645e-06
-8.81881e-06
-3.15909e-06
-8.18413e-06
-4.31613e-07
-4.5422e-06
3.01893e-07
-3.01288e-07
1.63903e-06
-8.46623e-07
2.96153e-06
-1.50081e-06
3.51641e-06
-2.23545e-06
3.88975e-06
-3.07196e-06
4.31244e-06
-4.0551e-06
4.84877e-06
-5.22427e-06
5.47668e-06
-6.55628e-06
6.04987e-06
-7.90846e-06
6.22495e-06
-9.05945e-06
5.56993e-06
-9.85867e-06
3.91699e-06
-1.03172e-05
1.53446e-06
-1.04843e-05
-1.09058e-06
-1.04428e-05
-3.62405e-06
-1.01631e-05
-6.10207e-06
-9.44598e-06
-8.43489e-06
-7.89605e-06
-1.03687e-05
-5.10167e-06
-1.09785e-05
-1.40167e-06
-8.24221e-06
-1.09978e-06
-2.49163e-07
1.8882e-06
-7.30297e-07
3.44267e-06
-1.32307e-06
4.10919e-06
-1.99516e-06
4.56184e-06
-2.76189e-06
5.07917e-06
-3.65658e-06
5.74346e-06
-4.69216e-06
6.51226e-06
-5.80924e-06
7.16695e-06
-6.85877e-06
7.27448e-06
-7.68184e-06
6.393e-06
-8.21713e-06
4.45228e-06
-8.52671e-06
1.84403e-06
-8.68581e-06
-9.31474e-07
-8.74678e-06
-3.56309e-06
-8.78346e-06
-6.06539e-06
-8.71406e-06
-8.50429e-06
-8.124e-06
-1.09588e-05
-6.26968e-06
-1.28328e-05
-2.65097e-06
-1.18609e-05
-3.75075e-06
-1.76992e-07
2.06519e-06
-5.6137e-07
3.82705e-06
-1.05222e-06
4.60004e-06
-1.60735e-06
5.11697e-06
-2.2246e-06
5.69642e-06
-2.91538e-06
6.43424e-06
-3.67217e-06
7.26905e-06
-4.43824e-06
7.93302e-06
-5.11663e-06
7.95287e-06
-5.63633e-06
6.9127e-06
-5.99254e-06
4.80848e-06
-6.22408e-06
2.07558e-06
-6.37697e-06
-7.78594e-07
-6.47716e-06
-3.46289e-06
-6.63626e-06
-5.90629e-06
-6.91085e-06
-8.2297e-06
-7.03003e-06
-1.08396e-05
-6.1946e-06
-1.36683e-05
-3.57913e-06
-1.44764e-05
-7.32988e-06
-9.41584e-08
2.15935e-06
-3.58755e-07
4.09164e-06
-7.16369e-07
4.95765e-06
-1.11278e-06
5.51338e-06
-1.5238e-06
6.10744e-06
-1.93921e-06
6.84965e-06
-2.34461e-06
7.67445e-06
-2.71823e-06
8.30664e-06
-3.04073e-06
8.27538e-06
-3.32148e-06
7.19346e-06
-3.5836e-06
5.0706e-06
-3.8328e-06
2.32478e-06
-4.05896e-06
-5.52433e-07
-4.24866e-06
-3.27319e-06
-4.48499e-06
-5.66997e-06
-4.89752e-06
-7.81717e-06
-5.42332e-06
-1.03138e-05
-5.35086e-06
-1.37407e-05
-3.58472e-06
-1.62425e-05
-1.09146e-05
-1.2172e-08
2.17152e-06
-1.48633e-07
4.2281e-06
-3.58465e-07
5.16748e-06
-5.77122e-07
5.73204e-06
-7.59818e-07
6.29014e-06
-8.78497e-07
6.96833e-06
-9.20002e-07
7.71595e-06
-9.08713e-07
8.29535e-06
-9.04402e-07
8.27106e-06
-9.65861e-07
7.25492e-06
-1.1211e-06
5.22584e-06
-1.37325e-06
2.57693e-06
-1.7021e-06
-2.23582e-07
-2.03178e-06
-2.94351e-06
-2.39877e-06
-5.30298e-06
-2.94035e-06
-7.27559e-06
-3.74533e-06
-9.50884e-06
-4.22637e-06
-1.32597e-05
-3.10216e-06
-1.73667e-05
-1.40168e-05
5.5085e-08
2.11644e-06
3.97041e-08
4.24348e-06
-2.4231e-08
5.23142e-06
-6.65499e-08
5.77436e-06
-2.82408e-08
6.25183e-06
1.26666e-07
6.81342e-06
4.03727e-07
7.43889e-06
7.74359e-07
7.92472e-06
1.12929e-06
7.91614e-06
1.34048e-06
7.04373e-06
1.32838e-06
5.23793e-06
1.10052e-06
2.80479e-06
6.98761e-07
1.78173e-07
2.20676e-07
-2.46542e-06
-3.77296e-07
-4.70501e-06
-1.14677e-06
-6.50612e-06
-2.19188e-06
-8.46373e-06
-3.10402e-06
-1.23475e-05
-2.56737e-06
-1.79034e-05
-1.65841e-05
9.49303e-08
2.0215e-06
1.68183e-07
4.17023e-06
2.26716e-07
5.17288e-06
3.32236e-07
5.66884e-06
5.43674e-07
6.04039e-06
9.08084e-07
6.44901e-06
1.4476e-06
6.89938e-06
2.12008e-06
7.25224e-06
2.79841e-06
7.23781e-06
3.29556e-06
6.54657e-06
3.47894e-06
5.05455e-06
3.32676e-06
2.95698e-06
2.89128e-06
6.13654e-07
2.21288e-06
-1.78703e-06
1.38905e-06
-3.88118e-06
3.85514e-07
-5.50258e-06
-8.73875e-07
-7.20434e-06
-2.09452e-06
-1.11269e-05
-2.04388e-06
-1.7954e-05
-1.8628e-05
9.90513e-08
1.92245e-06
2.22165e-07
4.04712e-06
3.72954e-07
5.02209e-06
5.98457e-07
5.44334e-06
9.48506e-07
5.69034e-06
1.46416e-06
5.93336e-06
2.16451e-06
6.19903e-06
3.01659e-06
6.40016e-06
3.90271e-06
6.35168e-06
4.62907e-06
5.82022e-06
5.01992e-06
4.6637e-06
5.00717e-06
2.96973e-06
4.61658e-06
1.00424e-06
3.85284e-06
-1.02329e-06
2.838e-06
-2.86633e-06
1.63608e-06
-4.30066e-06
1.91686e-07
-5.75994e-06
-1.25228e-06
-9.68291e-06
-1.58835e-06
-1.7618e-05
-2.02164e-05
5.65815e-08
1.86587e-06
1.73921e-07
3.92978e-06
3.77099e-07
4.81892e-06
6.95825e-07
5.12461e-06
1.15305e-06
5.23311e-06
1.76862e-06
5.3178e-06
2.5524e-06
5.41524e-06
3.47839e-06
5.47417e-06
4.45417e-06
5.3759e-06
5.31179e-06
4.9626e-06
5.86337e-06
4.11211e-06
5.99456e-06
2.83855e-06
5.69019e-06
1.3086e-06
4.94303e-06
-2.76133e-07
3.85034e-06
-1.77364e-06
2.53002e-06
-2.98034e-06
1.00842e-06
-4.23834e-06
-5.28675e-07
-8.14581e-06
-1.1636e-06
-1.6983e-05
-2.138e-05
-3.73233e-08
1.9032e-06
3.48141e-08
3.85764e-06
2.56353e-07
4.59738e-06
6.43127e-07
4.73784e-06
1.17758e-06
4.69866e-06
1.8557e-06
4.63968e-06
2.67286e-06
4.59808e-06
3.60453e-06
4.5425e-06
4.58098e-06
4.39945e-06
5.4729e-06
4.07069e-06
6.11197e-06
3.47304e-06
6.36031e-06
2.5902e-06
6.15212e-06
1.5168e-06
5.50262e-06
3.73362e-07
4.43705e-06
-7.08069e-07
3.12026e-06
-1.66355e-06
1.65833e-06
-2.77641e-06
8.41901e-08
-6.57167e-06
-6.32746e-07
-1.62661e-05
-2.20127e-05
-2.70912e-07
2.17411e-06
-4.13188e-07
3.99992e-06
-1.51193e-07
4.33538e-06
3.64797e-07
4.22185e-06
1.02188e-06
4.04158e-06
1.78314e-06
3.87842e-06
2.634e-06
3.74721e-06
3.55549e-06
3.621e-06
4.49492e-06
3.46002e-06
5.36152e-06
3.20409e-06
6.01887e-06
2.81569e-06
6.34387e-06
2.2652e-06
6.24641e-06
1.61425e-06
5.70983e-06
9.09942e-07
4.7691e-06
2.32662e-07
3.59662e-06
-4.91066e-07
2.39493e-06
-1.57472e-06
1.23133e-06
-5.40808e-06
1.98692e-07
-1.52335e-05
-2.1814e-05
-3.61604e-07
2.53571e-06
-5.88295e-07
4.22661e-06
-4.11332e-07
4.15842e-06
6.53253e-08
3.74519e-06
7.35641e-07
3.37126e-06
1.51309e-06
3.10097e-06
2.36547e-06
2.89483e-06
3.27407e-06
2.71241e-06
4.18571e-06
2.54838e-06
5.04047e-06
2.34933e-06
5.73207e-06
2.12409e-06
6.17702e-06
1.82025e-06
6.29019e-06
1.50109e-06
6.06162e-06
1.13851e-06
5.49902e-06
7.95262e-07
4.78815e-06
2.198e-07
4.12413e-06
-9.10694e-07
3.24155e-06
-4.5255e-06
1.5532e-06
-1.35451e-05
-2.02608e-05
-3.92901e-06
6.46473e-06
-3.63936e-06
3.93696e-06
-2.2099e-06
2.72896e-06
-7.45216e-07
2.2805e-06
6.27696e-07
1.99835e-06
1.96139e-06
1.76728e-06
3.26715e-06
1.58908e-06
4.54915e-06
1.43041e-06
5.78018e-06
1.31736e-06
6.93979e-06
1.18971e-06
7.97129e-06
1.09259e-06
8.83523e-06
9.56309e-07
9.47078e-06
8.65543e-07
9.88292e-06
7.26373e-07
1.00809e-05
5.97303e-07
1.0044e-05
2.56715e-07
9.83191e-06
-6.98639e-07
9.0521e-06
-3.74568e-06
5.21197e-06
-9.705e-06
-1.50488e-05
6.46473e-06
1.04017e-05
1.31306e-05
1.54111e-05
1.74095e-05
1.91768e-05
2.07658e-05
2.21963e-05
2.35136e-05
2.47033e-05
2.57959e-05
2.67522e-05
2.76178e-05
2.83441e-05
2.89414e-05
2.91982e-05
2.84995e-05
2.47538e-05
1.50488e-05
)
;

boundaryField
{
    movingWall
    {
        type            calculated;
        value           uniform 0;
    }
    fixedWalls
    {
        type            calculated;
        value           uniform 0;
    }
    frontAndBack
    {
        type            empty;
        value           nonuniform List<scalar> 0();
    }
}


// ************************************************************************* //
