/*--------------------------------*- C++ -*----------------------------------*\
| =========                 |                                                 |
| \\      /  F ield         | OpenFOAM: The Open Source CFD Toolbox           |
|  \\    /   O peration     | Version:  2212                                  |
|   \\  /    A nd           | Website:  www.openfoam.com                      |
|    \\/     M anipulation  |                                                 |
\*---------------------------------------------------------------------------*/
FoamFile
{
    version     2.0;
    format      ascii;
    arch        "LSB;label=32;scalar=64";
    class       volScalarField;
    location    "2.925";
    object      p;
}
// * * * * * * * * * * * * * * * * * * * * * * * * * * * * * * * * * * * * * //

dimensions      [0 2 -2 0 0 0 0];

internalField   nonuniform List<scalar> 
400
(
2.38134e-09
-0.000145569
-0.000509042
-0.0010197
-0.00164902
-0.00237032
-0.00302857
-0.00342183
-0.00338206
-0.00275906
-0.00140919
0.000692826
0.00325415
0.0054867
0.00654395
0.0060384
0.00423815
0.00246058
0.0014388
0.00135812
0.000117012
-4.96566e-05
-0.000350033
-0.000720978
-0.00118228
-0.0017931
-0.00256035
-0.00334144
-0.00383658
-0.00368776
-0.00263086
-0.000675113
0.00176967
0.00400653
0.0052002
0.00490914
0.00338674
0.00171317
0.000940002
0.00101067
0.000510403
0.000258529
-6.32004e-05
-0.000521397
-0.00126429
-0.00241998
-0.00395368
-0.00560846
-0.00694365
-0.00745605
-0.0068078
-0.00506963
-0.00257847
5.59217e-05
0.00202566
0.00269592
0.00204129
0.000871552
-1.96744e-05
-3.75423e-05
0.00107348
0.000687682
0.000180149
-0.000718352
-0.00227786
-0.00459898
-0.00746804
-0.010417
-0.0128698
-0.0142835
-0.0143256
-0.0130225
-0.0105785
-0.00742689
-0.00424538
-0.00176583
-0.000462314
-0.000318514
-0.000905098
-0.00153524
0.0014269
0.000863382
-4.62023e-05
-0.00179564
-0.00465356
-0.00855277
-0.0130109
-0.0173421
-0.0209113
-0.0232597
-0.0241269
-0.0233928
-0.0211629
-0.017704
-0.0134358
-0.00895312
-0.00504011
-0.00251364
-0.00181943
-0.0035987
0.00109643
0.00031566
-0.00117911
-0.00403366
-0.00839371
-0.0138977
-0.0197506
-0.0251229
-0.0294129
-0.0323013
-0.0336573
-0.0333812
-0.0315353
-0.0282499
-0.023652
-0.0179524
-0.0117417
-0.0064035
-0.00397682
-0.0060605
-0.000218234
-0.00122876
-0.00337048
-0.0073222
-0.0130219
-0.0197653
-0.0265107
-0.0323917
-0.0369121
-0.0399057
-0.041378
-0.041348
-0.0398697
-0.0369978
-0.0326956
-0.0268345
-0.0195236
-0.0119852
-0.00734842
-0.0073376
-0.00251757
-0.0037054
-0.00640232
-0.0112022
-0.01783
-0.0252948
-0.032418
-0.0383833
-0.0428339
-0.0457303
-0.0471633
-0.0472282
-0.0459975
-0.0435066
-0.0396899
-0.0342942
-0.0270439
-0.0184428
-0.0112148
-0.00759045
-0.00545117
-0.00671807
-0.00977768
-0.0150795
-0.022182
-0.0299148
-0.0370605
-0.0428919
-0.0471711
-0.0499386
-0.0513216
-0.0514297
-0.050334
-0.048081
-0.0446628
-0.0398955
-0.0333358
-0.0247973
-0.0159235
-0.00948166
-0.0084887
-0.00972922
-0.0129397
-0.0184097
-0.0256053
-0.0332962
-0.0402914
-0.0459402
-0.0500748
-0.0527634
-0.054131
-0.0542677
-0.0532331
-0.0510879
-0.0478958
-0.0436185
-0.0379037
-0.0301839
-0.0213316
-0.0136021
-0.0111378
-0.0122803
-0.0154412
-0.0208029
-0.0278071
-0.0352737
-0.0420709
-0.0475812
-0.051647
-0.0543203
-0.0557028
-0.0558605
-0.0548393
-0.0527055
-0.049584
-0.0455797
-0.0405893
-0.0339312
-0.026068
-0.0182546
-0.0131191
-0.0140804
-0.0170292
-0.022035
-0.0286167
-0.0357346
-0.0423411
-0.0478011
-0.0518959
-0.0546257
-0.0560532
-0.0562247
-0.0551759
-0.0529742
-0.0497948
-0.0458589
-0.0413703
-0.0356091
-0.0288747
-0.0214191
-0.014395
-0.0150364
-0.0175588
-0.0219987
-0.0279765
-0.0346568
-0.0410896
-0.0465857
-0.0508097
-0.0536719
-0.0551812
-0.0553616
-0.0542434
-0.0519137
-0.0485727
-0.0445055
-0.0402696
-0.0349947
-0.0291707
-0.0219712
-0.0150472
-0.01525
-0.0170925
-0.0206984
-0.0258807
-0.0320363
-0.0383011
-0.0439031
-0.0483566
-0.0514432
-0.0530956
-0.0533071
-0.0521
-0.0495786
-0.0459864
-0.0416922
-0.0373187
-0.0321197
-0.027261
-0.0195892
-0.0151939
-0.0149142
-0.0158166
-0.0182856
-0.0224551
-0.0279801
-0.0340642
-0.0398274
-0.0446058
-0.0480191
-0.0498973
-0.0501825
-0.0489014
-0.0461464
-0.042223
-0.0375471
-0.0327734
-0.0274604
-0.0237525
-0.0140882
-0.0149549
-0.0142641
-0.0139314
-0.014928
-0.0178804
-0.0226772
-0.0285641
-0.0345293
-0.039717
-0.0435631
-0.0457756
-0.0462285
-0.0449413
-0.0419758
-0.0376762
-0.0324777
-0.0271202
-0.0215096
-0.0181665
-0.00404128
-0.0144189
-0.0134353
-0.0115859
-0.0109262
-0.0125931
-0.016656
-0.0223649
-0.0285629
-0.0342205
-0.0385927
-0.041261
-0.042006
-0.0408184
-0.0377355
-0.0330491
-0.0271296
-0.0206936
-0.0137572
-0.00759525
0.0153079
-0.0144579
-0.0125912
-0.00873679
-0.00642106
-0.00698374
-0.0105031
-0.0161392
-0.0226064
-0.0287705
-0.0337333
-0.0369725
-0.0381531
-0.0372176
-0.0341602
-0.0291241
-0.0221291
-0.0133865
-0.00177604
0.0152654
0.0558425
-0.0117906
-0.011914
-0.00606515
-0.00227442
-0.00218643
-0.00553509
-0.0112736
-0.0180435
-0.0246831
-0.0301896
-0.0340106
-0.0357263
-0.0352394
-0.0322785
-0.0266889
-0.0176614
-0.00397713
0.0190455
0.0589978
0.128387
-0.029491
-0.0108199
-0.00109295
0.00243775
0.00187418
-0.00184701
-0.00786044
-0.0149389
-0.0219282
-0.0278018
-0.0319849
-0.0340379
-0.0338262
-0.0309309
-0.0247027
-0.0129553
0.00862117
0.0498025
0.121331
0.224755
)
;

boundaryField
{
    movingWall
    {
        type            zeroGradient;
    }
    fixedWalls
    {
        type            zeroGradient;
    }
    frontAndBack
    {
        type            empty;
    }
}


// ************************************************************************* //
