/*--------------------------------*- C++ -*----------------------------------*\
| =========                 |                                                 |
| \\      /  F ield         | OpenFOAM: The Open Source CFD Toolbox           |
|  \\    /   O peration     | Version:  2212                                  |
|   \\  /    A nd           | Website:  www.openfoam.com                      |
|    \\/     M anipulation  |                                                 |
\*---------------------------------------------------------------------------*/
FoamFile
{
    version     2.0;
    format      ascii;
    arch        "LSB;label=32;scalar=64";
    class       volScalarField;
    location    "2.68";
    object      p;
}
// * * * * * * * * * * * * * * * * * * * * * * * * * * * * * * * * * * * * * //

dimensions      [0 2 -2 0 0 0 0];

internalField   nonuniform List<scalar> 
400
(
2.71715e-08
-0.00014352
-0.000498776
-0.00099881
-0.0016155
-0.00232051
-0.00296543
-0.00335142
-0.00330986
-0.00269247
-0.0013609
0.000708042
0.00323181
0.0054401
0.00650376
0.00603784
0.00429114
0.00255084
0.0015398
0.00145442
0.000117898
-4.5986e-05
-0.000339432
-0.000704778
-0.00115911
-0.00175608
-0.00250177
-0.00325941
-0.00373794
-0.0035873
-0.00254764
-0.000624434
0.00178302
0.00399487
0.00519182
0.00493441
0.00346333
0.00181797
0.00105094
0.00111251
0.000500054
0.000256245
-5.77184e-05
-0.000506543
-0.00123077
-0.00235419
-0.00384562
-0.00545752
-0.00676032
-0.00726121
-0.00662589
-0.00491696
-0.00246445
0.000135988
0.00209141
0.00277218
0.00214505
0.00099389
0.000106821
7.88609e-05
0.00104174
0.000666617
0.000176796
-0.000692969
-0.00220466
-0.00446108
-0.00725994
-0.0101446
-0.0125491
-0.0139382
-0.0139822
-0.0127032
-0.010301
-0.00719818
-0.00405957
-0.00160843
-0.000320177
-0.000184504
-0.00077361
-0.00140528
0.00136496
0.000821533
-5.05802e-05
-0.00173761
-0.00450849
-0.00830763
-0.0126704
-0.0169216
-0.0204315
-0.0227439
-0.0236008
-0.0228852
-0.0206979
-0.0172983
-0.0130979
-0.00868397
-0.0048346
-0.00235823
-0.00169161
-0.00345319
0.0010216
0.000269912
-0.00116269
-0.00391784
-0.00815323
-0.0135314
-0.0192761
-0.0245631
-0.0287904
-0.0316383
-0.0329775
-0.0327134
-0.0309055
-0.0276813
-0.0231635
-0.0175582
-0.0114492
-0.00620369
-0.00382946
-0.00589811
-0.000278316
-0.0012516
-0.00330768
-0.00712982
-0.0126795
-0.0192863
-0.025923
-0.031721
-0.0361798
-0.0391307
-0.0405809
-0.040554
-0.039106
-0.0362929
-0.0320757
-0.0263215
-0.0191331
-0.011718
-0.00716845
-0.00719453
-0.00253431
-0.00367997
-0.00627538
-0.0109269
-0.0173944
-0.0247247
-0.0317467
-0.0376356
-0.0420271
-0.0448793
-0.0462843
-0.0463425
-0.0451324
-0.0426936
-0.0389611
-0.0336767
-0.0265565
-0.0180965
-0.0109978
-0.00746158
-0.00540814
-0.00663172
-0.00958304
-0.0147294
-0.0216726
-0.0292807
-0.0363371
-0.0421011
-0.0463265
-0.04905
-0.0504003
-0.0504925
-0.0494056
-0.0471936
-0.0438524
-0.0391942
-0.0327646
-0.0243707
-0.0156411
-0.00931003
-0.0083874
-0.00958586
-0.012688
-0.0180039
-0.0250476
-0.0326265
-0.0395457
-0.0451383
-0.0492266
-0.0518745
-0.0532077
-0.0533213
-0.0522832
-0.0501646
-0.0470369
-0.0428611
-0.0372723
-0.0296908
-0.0209722
-0.0133437
-0.0109947
-0.0120965
-0.0151534
-0.0203674
-0.0272294
-0.034595
-0.0413278
-0.0467931
-0.0508216
-0.05346
-0.0548091
-0.0549392
-0.0539038
-0.0517825
-0.0487111
-0.0447977
-0.0399277
-0.033399
-0.0256522
-0.017919
-0.012956
-0.0138781
-0.0167305
-0.0215986
-0.028047
-0.0350702
-0.0416189
-0.0470421
-0.0511077
-0.0538094
-0.0552069
-0.0553493
-0.0542784
-0.0520795
-0.0489383
-0.0450844
-0.040712
-0.0350738
-0.0284397
-0.021045
-0.0142312
-0.0148403
-0.0172754
-0.0215889
-0.02744
-0.0340254
-0.040399
-0.0458602
-0.0500604
-0.0529002
-0.0543839
-0.0545367
-0.0533962
-0.0510642
-0.047756
-0.0437677
-0.0396489
-0.0344975
-0.0287587
-0.0216093
-0.0148952
-0.0150791
-0.016848
-0.0203402
-0.0253998
-0.0314542
-0.0376504
-0.0432114
-0.04764
-0.050707
-0.0523386
-0.052528
-0.051303
-0.0487828
-0.0452276
-0.041018
-0.0367727
-0.0317035
-0.0269101
-0.0192971
-0.0150601
-0.0147793
-0.0156309
-0.0180038
-0.0220554
-0.027468
-0.0334652
-0.0391713
-0.0439155
-0.0473069
-0.0491674
-0.0494379
-0.048151
-0.0454109
-0.0415404
-0.036967
-0.0323383
-0.0271672
-0.0235171
-0.0139282
-0.0148452
-0.0141694
-0.0138178
-0.0147467
-0.017592
-0.022264
-0.028039
-0.0339222
-0.0390578
-0.042874
-0.0450704
-0.0455185
-0.0442419
-0.0413132
-0.0370923
-0.0320236
-0.0268328
-0.0213783
-0.018142
-0.0040672
-0.014341
-0.0133844
-0.0115563
-0.0108699
-0.0124466
-0.0163747
-0.0219453
-0.0280318
-0.0336135
-0.0379421
-0.0405919
-0.0413399
-0.0401797
-0.0371596
-0.0325828
-0.0268265
-0.0205901
-0.0138486
-0.00784656
0.0150631
-0.0144266
-0.0125909
-0.00879691
-0.00650182
-0.00699516
-0.0103757
-0.0158535
-0.0221832
-0.0282478
-0.0331509
-0.0363661
-0.0375546
-0.0366599
-0.0336818
-0.0287777
-0.0219774
-0.0134825
-0.00212275
0.0147399
0.0553828
-0.0118081
-0.0119851
-0.00624344
-0.00249217
-0.00233646
-0.00554166
-0.0111091
-0.0177234
-0.0242461
-0.029681
-0.033472
-0.0351949
-0.0347524
-0.0318824
-0.0264422
-0.0176283
-0.00421685
0.0185305
0.0583343
0.127814
-0.0295162
-0.0109498
-0.00133875
0.00215619
0.00165908
-0.00191898
-0.00775781
-0.0146736
-0.0215375
-0.0273313
-0.0314781
-0.0335346
-0.0333659
-0.0305595
-0.0244734
-0.0129321
0.00837094
0.0492999
0.120722
0.224215
)
;

boundaryField
{
    movingWall
    {
        type            zeroGradient;
    }
    fixedWalls
    {
        type            zeroGradient;
    }
    frontAndBack
    {
        type            empty;
    }
}


// ************************************************************************* //
