/*--------------------------------*- C++ -*----------------------------------*\
| =========                 |                                                 |
| \\      /  F ield         | OpenFOAM: The Open Source CFD Toolbox           |
|  \\    /   O peration     | Version:  2212                                  |
|   \\  /    A nd           | Website:  www.openfoam.com                      |
|    \\/     M anipulation  |                                                 |
\*---------------------------------------------------------------------------*/
FoamFile
{
    version     2.0;
    format      ascii;
    arch        "LSB;label=32;scalar=64";
    class       volScalarField;
    location    "3.265";
    object      p;
}
// * * * * * * * * * * * * * * * * * * * * * * * * * * * * * * * * * * * * * //

dimensions      [0 2 -2 0 0 0 0];

internalField   nonuniform List<scalar> 
400
(
-7.05123e-09
-0.000148071
-0.000520177
-0.00104229
-0.00168525
-0.00242361
-0.00309588
-0.00349749
-0.0034612
-0.00283531
-0.00147141
0.000657321
0.00324829
0.00549832
0.00654769
0.00600829
0.00416568
0.0023611
0.00133305
0.00125682
0.000117005
-5.30319e-05
-0.000361216
-0.000739452
-0.00120939
-0.00183474
-0.00262337
-0.00342775
-0.00394012
-0.00379487
-0.00272436
-0.000742081
0.00173234
0.00398771
0.00517689
0.00485834
0.00329652
0.0016033
0.000827572
0.00090574
0.000521486
0.000261782
-6.85136e-05
-0.000537436
-0.00129968
-0.00248771
-0.00406418
-0.00576327
-0.00713202
-0.00765614
-0.0069957
-0.00523218
-0.00270856
-4.58208e-05
0.00193731
0.00260305
0.00193148
0.000751362
-0.000141343
-0.000152273
0.00110531
0.000709551
0.000185065
-0.0007416
-0.00234883
-0.0047367
-0.00768076
-0.010699
-0.0132016
-0.0146369
-0.0146728
-0.0133443
-0.0108601
-0.00766299
-0.00444008
-0.00192897
-0.000603318
-0.000445162
-0.00102687
-0.00165877
0.0014873
0.000905844
-3.80153e-05
-0.00184762
-0.00479441
-0.00880157
-0.0133667
-0.0177862
-0.0214145
-0.02379
-0.0246546
-0.0238902
-0.021611
-0.0180923
-0.01376
-0.00921185
-0.00523612
-0.00265889
-0.00193727
-0.00373364
0.00116945
0.000362736
-0.00118897
-0.00414108
-0.00863267
-0.0142793
-0.0202591
-0.0257264
-0.0300736
-0.0329838
-0.0343303
-0.0340162
-0.0321147
-0.0287627
-0.0240905
-0.018309
-0.0120098
-0.00658825
-0.0041132
-0.00620738
-0.000158994
-0.0012031
-0.0034244
-0.00750673
-0.0133708
-0.0202775
-0.027157
-0.0331308
-0.0377024
-0.0407103
-0.0421656
-0.042092
-0.0405522
-0.037607
-0.033223
-0.0272726
-0.0198641
-0.012225
-0.00751239
-0.00746317
-0.00250016
-0.00372662
-0.00651993
-0.0114731
-0.0182841
-0.0259205
-0.0331778
-0.0392322
-0.0437294
-0.0466354
-0.0480463
-0.0480632
-0.0467655
-0.0441943
-0.0402884
-0.0347977
-0.0274474
-0.0187397
-0.0114083
-0.00771046
-0.00549261
-0.00679993
-0.00996476
-0.0154314
-0.0227246
-0.0306299
-0.0379073
-0.043825
-0.0481482
-0.0509218
-0.0522784
-0.052334
-0.0511662
-0.0488278
-0.0453151
-0.0404481
-0.0337875
-0.025145
-0.0161666
-0.00964275
-0.00858869
-0.00986926
-0.0131872
-0.0188247
-0.0262106
-0.0340713
-0.0411953
-0.0469284
-0.0511045
-0.0537953
-0.0551311
-0.0552098
-0.0540991
-0.0518665
-0.048579
-0.0442007
-0.0383852
-0.0305673
-0.0216254
-0.0138292
-0.011281
-0.012463
-0.0157285
-0.0212536
-0.0284427
-0.0360748
-0.0429986
-0.0485918
-0.0526972
-0.0553689
-0.0567143
-0.0568089
-0.0557085
-0.053487
-0.0502722
-0.0461691
-0.0410795
-0.0343293
-0.0263905
-0.0185287
-0.0132844
-0.0142829
-0.0173305
-0.0224894
-0.0292463
-0.0365245
-0.0432564
-0.0487997
-0.0529339
-0.0556606
-0.0570482
-0.0571532
-0.0560232
-0.0537333
-0.0504637
-0.0464324
-0.0418468
-0.0359967
-0.0291973
-0.0217074
-0.0145638
-0.0152349
-0.017845
-0.0224232
-0.0285634
-0.0353983
-0.0419567
-0.0475391
-0.0518058
-0.0546673
-0.0561377
-0.0562509
-0.0550501
-0.0526322
-0.0492016
-0.0450407
-0.0407082
-0.035344
-0.0294647
-0.0222373
-0.0152074
-0.0154265
-0.0173389
-0.0210626
-0.0263908
-0.032694
-0.0390858
-0.0447801
-0.0492836
-0.0523762
-0.0539951
-0.0541445
-0.0528529
-0.0502414
-0.0465574
-0.0421674
-0.0376921
-0.0324021
-0.0275019
-0.0197946
-0.0153388
-0.015059
-0.0160057
-0.0185646
-0.0228584
-0.0285222
-0.0347359
-0.0406005
-0.0454403
-0.0488702
-0.0507224
-0.0509475
-0.0495874
-0.0467397
-0.0427181
-0.0379392
-0.0330567
-0.0276481
-0.0239052
-0.0141933
-0.0150779
-0.014374
-0.0140542
-0.0151046
-0.0181539
-0.0230785
-0.0290982
-0.0351761
-0.0404394
-0.0443165
-0.0465151
-0.0469166
-0.0455505
-0.0424877
-0.0380805
-0.0327673
-0.0272913
-0.0215794
-0.0181689
-0.00401307
-0.0145132
-0.0135082
-0.0116368
-0.0109885
-0.0127229
-0.0169025
-0.0227481
-0.0290714
-0.0348213
-0.0392412
-0.0419105
-0.0426147
-0.0413527
-0.0381646
-0.0333583
-0.0273068
-0.0207333
-0.0136719
-0.00740812
0.0154875
-0.0145109
-0.0126222
-0.00871488
-0.00636926
-0.00697335
-0.0105996
-0.0163753
-0.0229789
-0.0292507
-0.0342776
-0.0375319
-0.0386799
-0.037672
-0.0345134
-0.0293489
-0.0222016
-0.0132908
-0.00151884
0.0156368
0.0561676
-0.0118015
-0.0118906
-0.00595445
-0.00211585
-0.0020622
-0.00551415
-0.0113952
-0.0183105
-0.0250701
-0.0306534
-0.0345017
-0.0361963
-0.0356453
-0.0325807
-0.0268511
-0.0176575
-0.00378646
0.0194146
0.0594609
0.128787
-0.0295047
-0.0107561
-0.000931056
0.00264564
0.0020491
-0.00177449
-0.0079313
-0.0151587
-0.0222739
-0.0282316
-0.0324497
-0.0344878
-0.034216
-0.0312207
-0.02486
-0.0129511
0.00881574
0.0501617
0.121755
0.225131
)
;

boundaryField
{
    movingWall
    {
        type            zeroGradient;
    }
    fixedWalls
    {
        type            zeroGradient;
    }
    frontAndBack
    {
        type            empty;
    }
}


// ************************************************************************* //
