/*--------------------------------*- C++ -*----------------------------------*\
| =========                 |                                                 |
| \\      /  F ield         | OpenFOAM: The Open Source CFD Toolbox           |
|  \\    /   O peration     | Version:  2212                                  |
|   \\  /    A nd           | Website:  www.openfoam.com                      |
|    \\/     M anipulation  |                                                 |
\*---------------------------------------------------------------------------*/
FoamFile
{
    version     2.0;
    format      ascii;
    arch        "LSB;label=32;scalar=64";
    class       volScalarField;
    location    "1.77";
    object      p;
}
// * * * * * * * * * * * * * * * * * * * * * * * * * * * * * * * * * * * * * //

dimensions      [0 2 -2 0 0 0 0];

internalField   nonuniform List<scalar> 
400
(
-1.42924e-08
-0.000116198
-0.000359988
-0.000706898
-0.00114448
-0.00163301
-0.00208568
-0.0023495
-0.00225955
-0.0016803
-0.000521235
0.00121622
0.00333593
0.00522802
0.00623757
0.00602851
0.00471925
0.00330855
0.00242363
0.00230389
0.000114741
-1.49656e-05
-0.00020603
-0.000468406
-0.000801311
-0.00121318
-0.00169612
-0.00216654
-0.00242994
-0.00222567
-0.00133904
0.000258101
0.00226254
0.00414783
0.00525208
0.00518343
0.00409613
0.00272408
0.0020241
0.0020168
0.000364616
0.000191764
-9.42962e-06
-0.000311876
-0.00079197
-0.00152657
-0.00251809
-0.00362531
-0.00455143
-0.00491151
-0.00439621
-0.00298239
-0.000940279
0.00125201
0.00293595
0.00355542
0.00305703
0.0020411
0.00120423
0.00111706
0.000634429
0.00038194
9.76777e-05
-0.000427851
-0.00137486
-0.00286482
-0.00483756
-0.00700014
-0.00890803
-0.0100875
-0.0101928
-0.00917799
-0.00721607
-0.00464378
-0.00201891
2.36759e-05
0.00102834
0.000999365
0.000358494
-0.000232625
0.000664492
0.000319828
-0.000160495
-0.00115008
-0.00291244
-0.00553331
-0.00880005
-0.0122252
-0.0152388
-0.017355
-0.0182592
-0.0178179
-0.0160873
-0.0132678
-0.00972445
-0.00600699
-0.00283877
-0.000915793
-0.000546835
-0.00212222
0.000201964
-0.000262308
-0.00105765
-0.0027133
-0.00551406
-0.00942532
-0.0139995
-0.0185466
-0.0224312
-0.0252274
-0.0267168
-0.0267756
-0.0253955
-0.0226944
-0.0188062
-0.0139571
-0.00872136
-0.00432938
-0.0024564
-0.00442705
-0.000923145
-0.00152447
-0.00270384
-0.00509648
-0.00892939
-0.0139853
-0.0195642
-0.0248305
-0.0291579
-0.0322202
-0.0339148
-0.0342223
-0.0331641
-0.0308123
-0.0271606
-0.0221103
-0.0157845
-0.00932216
-0.00550329
-0.00591436
-0.00270216
-0.00342771
-0.00497626
-0.00801069
-0.0126574
-0.0185146
-0.0246821
-0.030263
-0.0347033
-0.0377909
-0.0395067
-0.0398971
-0.039033
-0.0369887
-0.0337494
-0.0290971
-0.0227597
-0.0152298
-0.00907333
-0.00626139
-0.0049301
-0.00572628
-0.00755575
-0.0110292
-0.0161779
-0.0224665
-0.0288784
-0.0345236
-0.0389388
-0.0419951
-0.0437102
-0.0441368
-0.0433536
-0.0414589
-0.0385233
-0.0344138
-0.0286806
-0.0211269
-0.0133081
-0.00774799
-0.00728051
-0.00807136
-0.010054
-0.0137309
-0.0190721
-0.0254899
-0.0319328
-0.037547
-0.0419345
-0.0450033
-0.0467629
-0.0472321
-0.0464628
-0.0445731
-0.0417398
-0.0380108
-0.0330367
-0.0261907
-0.0182128
-0.0111846
-0.00942858
-0.0101445
-0.0121384
-0.0157968
-0.0210655
-0.0273857
-0.0337388
-0.0393081
-0.0437117
-0.0468454
-0.0486842
-0.0492015
-0.0484104
-0.0464362
-0.0435434
-0.0399739
-0.0356475
-0.0297698
-0.0226194
-0.0153058
-0.011149
-0.0117238
-0.0135956
-0.0170272
-0.0219928
-0.028022
-0.0341962
-0.0397276
-0.0441916
-0.0474257
-0.0493554
-0.0499158
-0.0490784
-0.0469772
-0.0439314
-0.0403477
-0.0364827
-0.031457
-0.0253286
-0.0182271
-0.0123767
-0.012727
-0.0143026
-0.0173124
-0.0217768
-0.0273481
-0.0332598
-0.0387435
-0.0432922
-0.0466461
-0.0486649
-0.0492516
-0.0483644
-0.0461307
-0.0429025
-0.0391648
-0.0355764
-0.03107
-0.0257838
-0.0188676
-0.0131298
-0.0131955
-0.0142834
-0.0166326
-0.0203899
-0.0253618
-0.0309319
-0.0363423
-0.040986
-0.0444833
-0.0466103
-0.0472308
-0.0463048
-0.0439416
-0.0405314
-0.0366427
-0.0330174
-0.028688
-0.0242774
-0.0169751
-0.0134734
-0.0132371
-0.0136614
-0.0151174
-0.0179757
-0.0222153
-0.0273606
-0.0326606
-0.0374049
-0.0410797
-0.0433621
-0.0440635
-0.0431313
-0.040663
-0.0370871
-0.0329956
-0.0291385
-0.0248214
-0.0215714
-0.0124657
-0.0135178
-0.0130121
-0.012548
-0.0128968
-0.0147189
-0.0181496
-0.0228216
-0.0279867
-0.0328429
-0.0367419
-0.0392519
-0.0401174
-0.039278
-0.0367784
-0.0330668
-0.0287116
-0.0244904
-0.0200174
-0.0175254
-0.00393241
-0.0133414
-0.0126466
-0.0110806
-0.0102325
-0.0110096
-0.0136689
-0.017901
-0.0229456
-0.0279366
-0.0321098
-0.0349308
-0.0360516
-0.0353825
-0.0329969
-0.0291846
-0.0244313
-0.0194426
-0.0139881
-0.0091862
0.0136037
-0.0138994
-0.0123099
-0.00914812
-0.00712254
-0.00706017
-0.0091864
-0.013155
-0.0181749
-0.0233654
-0.0278792
-0.03112
-0.032644
-0.0323017
-0.0300434
-0.0260867
-0.0205834
-0.0137457
-0.00415758
0.0112689
0.052242
-0.0117599
-0.0123652
-0.00764107
-0.00437767
-0.00371375
-0.00561842
-0.00955481
-0.0146759
-0.020125
-0.0249959
-0.0286883
-0.0306805
-0.0307937
-0.028759
-0.024463
-0.0171116
-0.00559304
0.0151173
0.0536775
0.123674
-0.0294656
-0.0118371
-0.00336748
-0.000310519
-0.000272441
-0.00253508
-0.0067066
-0.0120582
-0.0177601
-0.0229041
-0.0268826
-0.0291678
-0.0295403
-0.0275569
-0.022576
-0.0125126
0.00683402
0.045851
0.116358
0.220211
)
;

boundaryField
{
    movingWall
    {
        type            zeroGradient;
    }
    fixedWalls
    {
        type            zeroGradient;
    }
    frontAndBack
    {
        type            empty;
    }
}


// ************************************************************************* //
