/*--------------------------------*- C++ -*----------------------------------*\
| =========                 |                                                 |
| \\      /  F ield         | OpenFOAM: The Open Source CFD Toolbox           |
|  \\    /   O peration     | Version:  2212                                  |
|   \\  /    A nd           | Website:  www.openfoam.com                      |
|    \\/     M anipulation  |                                                 |
\*---------------------------------------------------------------------------*/
FoamFile
{
    version     2.0;
    format      ascii;
    arch        "LSB;label=32;scalar=64";
    class       surfaceScalarField;
    location    "2.255";
    object      phi;
}
// * * * * * * * * * * * * * * * * * * * * * * * * * * * * * * * * * * * * * //

dimensions      [0 3 -1 0 0 0 0];

oriented        oriented;

internalField   nonuniform List<scalar> 
760
(
1.17057e-07
-1.17057e-07
2.10028e-07
-9.29705e-08
2.07852e-07
2.17669e-09
8.8429e-08
1.19423e-07
-1.84362e-07
2.72791e-07
-6.63302e-07
4.7894e-07
-1.37758e-06
7.14275e-07
-2.26556e-06
8.87982e-07
-3.16159e-06
8.96031e-07
-3.85661e-06
6.95016e-07
-4.18421e-06
3.27603e-07
-4.04837e-06
-1.35837e-07
-3.37998e-06
-6.68394e-07
-2.28043e-06
-1.09954e-06
-9.61548e-07
-1.31889e-06
2.30032e-07
-1.19158e-06
9.3888e-07
-7.08848e-07
9.21653e-07
1.72267e-08
4.1722e-07
5.04434e-07
4.1722e-07
6.34506e-08
-1.80508e-07
-3.22635e-08
2.74415e-09
-3.79496e-07
3.4941e-07
-1.06591e-06
8.05836e-07
-2.1405e-06
1.34738e-06
-3.55714e-06
1.89558e-06
-5.1247e-06
2.28183e-06
-6.57059e-06
2.33388e-06
-7.66715e-06
1.99259e-06
-8.28578e-06
1.31364e-06
-8.37002e-06
4.11842e-07
-7.88603e-06
-6.19823e-07
-6.86321e-06
-1.69121e-06
-5.33274e-06
-2.63002e-06
-3.43183e-06
-3.21979e-06
-1.44937e-06
-3.17404e-06
1.14041e-07
-2.27226e-06
7.70512e-07
-6.39244e-07
4.81839e-07
7.93107e-07
8.9906e-07
-1.6405e-07
-1.64577e-08
-6.42121e-07
4.80815e-07
-1.51811e-06
1.2254e-06
-2.83916e-06
2.12689e-06
-4.53548e-06
3.0437e-06
-6.37978e-06
3.73988e-06
-8.08875e-06
3.9908e-06
-9.46629e-06
3.71142e-06
-1.04319e-05
2.95823e-06
-1.09626e-05
1.84431e-06
-1.10148e-05
4.64035e-07
-1.0611e-05
-1.02357e-06
-9.74736e-06
-2.55489e-06
-8.375e-06
-4.00238e-06
-6.4759e-06
-5.1189e-06
-4.14682e-06
-5.50312e-06
-1.76799e-06
-4.65109e-06
-8.7658e-08
-2.31957e-06
2.80684e-07
4.24765e-07
1.17974e-06
-4.57117e-07
4.40659e-07
-1.40321e-06
1.42691e-06
-2.7706e-06
2.59279e-06
-4.51418e-06
3.87046e-06
-6.44498e-06
4.97451e-06
-8.29577e-06
5.59066e-06
-9.85452e-06
5.54956e-06
-1.10389e-05
4.89585e-06
-1.18547e-05
3.77398e-06
-1.23258e-05
2.31541e-06
-1.24386e-05
5.76781e-07
-1.22342e-05
-1.22788e-06
-1.1692e-05
-3.09718e-06
-1.07142e-05
-4.98016e-06
-9.17836e-06
-6.65471e-06
-6.96761e-06
-7.71386e-06
-4.13815e-06
-7.48056e-06
-1.29292e-06
-5.1648e-06
1.1463e-07
-9.8278e-07
1.29437e-06
-7.5053e-07
1.19119e-06
-2.06411e-06
2.74049e-06
-3.72302e-06
4.2517e-06
-5.59394e-06
5.74139e-06
-7.44496e-06
6.82553e-06
-9.05329e-06
7.19898e-06
-1.03067e-05
6.80295e-06
-1.11984e-05
5.78762e-06
-1.17731e-05
4.3486e-06
-1.2094e-05
2.63636e-06
-1.22374e-05
7.20213e-07
-1.22138e-05
-1.25154e-06
-1.20125e-05
-3.29845e-06
-1.15549e-05
-5.43781e-06
-1.06619e-05
-7.54767e-06
-9.05771e-06
-9.31806e-06
-6.47157e-06
-1.00667e-05
-3.02906e-06
-8.60731e-06
-2.45081e-07
-3.76676e-06
1.04929e-06
-9.30151e-07
2.12134e-06
-2.42138e-06
4.23172e-06
-4.12938e-06
5.9597e-06
-5.87311e-06
7.48511e-06
-7.44469e-06
8.39711e-06
-8.69131e-06
8.4456e-06
-9.56937e-06
7.68101e-06
-1.01168e-05
6.33507e-06
-1.04098e-05
4.64154e-06
-1.05427e-05
2.76931e-06
-1.06329e-05
8.10391e-07
-1.06977e-05
-1.18676e-06
-1.07408e-05
-3.2553e-06
-1.07368e-05
-5.44187e-06
-1.05325e-05
-7.75193e-06
-9.80319e-06
-1.00474e-05
-8.07244e-06
-1.17974e-05
-4.96562e-06
-1.17141e-05
-1.08494e-06
-7.64744e-06
-3.56475e-08
-9.46119e-07
3.06746e-06
-2.40533e-06
5.69093e-06
-3.96331e-06
7.51768e-06
-5.43165e-06
8.95345e-06
-6.65195e-06
9.61741e-06
-7.53265e-06
9.32631e-06
-8.07547e-06
8.22383e-06
-8.34499e-06
6.60459e-06
-8.43557e-06
4.73212e-06
-8.44643e-06
2.78017e-06
-8.46904e-06
8.3301e-07
-8.53991e-06
-1.11589e-06
-8.67875e-06
-3.11646e-06
-8.90004e-06
-5.22059e-06
-9.14345e-06
-7.50852e-06
-9.16702e-06
-1.00238e-05
-8.45019e-06
-1.25143e-05
-6.26757e-06
-1.38968e-05
-2.28566e-06
-1.16293e-05
-2.32131e-06
-7.98143e-07
3.8656e-06
-2.05733e-06
6.95011e-06
-3.34492e-06
8.80527e-06
-4.48507e-06
1.00936e-05
-5.36919e-06
1.05015e-05
-5.95381e-06
9.91093e-06
-6.26803e-06
8.53805e-06
-6.38669e-06
6.72325e-06
-6.40205e-06
4.74748e-06
-6.39547e-06
2.77359e-06
-6.4152e-06
8.52736e-07
-6.48371e-06
-1.04738e-06
-6.62747e-06
-2.9727e-06
-6.88368e-06
-4.96438e-06
-7.27027e-06
-7.12194e-06
-7.68629e-06
-9.60778e-06
-7.70277e-06
-1.24978e-05
-6.50274e-06
-1.50968e-05
-3.40391e-06
-1.47282e-05
-5.72521e-06
-5.32916e-07
4.39852e-06
-1.48508e-06
7.90228e-06
-2.44935e-06
9.76954e-06
-3.26207e-06
1.09063e-05
-3.85795e-06
1.10974e-05
-4.22794e-06
1.02809e-05
-4.41281e-06
8.72292e-06
-4.48129e-06
6.79173e-06
-4.50672e-06
4.77292e-06
-4.54031e-06
2.80717e-06
-4.59917e-06
9.11604e-07
-4.68966e-06
-9.56893e-07
-4.82714e-06
-2.83522e-06
-5.04721e-06
-4.7443e-06
-5.41467e-06
-6.75448e-06
-5.94083e-06
-9.08162e-06
-6.38106e-06
-1.20576e-05
-5.97236e-06
-1.55055e-05
-3.79807e-06
-1.69025e-05
-9.52328e-06
-1.97998e-07
4.59651e-06
-7.89537e-07
8.49382e-06
-1.4154e-06
1.03954e-05
-1.92313e-06
1.14141e-05
-2.27681e-06
1.14511e-05
-2.48999e-06
1.04941e-05
-2.60328e-06
8.83621e-06
-2.6673e-06
6.85575e-06
-2.72762e-06
4.83324e-06
-2.81079e-06
2.89034e-06
-2.92075e-06
1.02156e-06
-3.05483e-06
-8.2281e-07
-3.21525e-06
-2.6748e-06
-3.42064e-06
-4.53892e-06
-3.73577e-06
-6.43935e-06
-4.25245e-06
-8.56494e-06
-4.89728e-06
-1.14127e-05
-5.03044e-06
-1.53723e-05
-3.48929e-06
-1.84436e-05
-1.30126e-05
1.39168e-07
4.45735e-06
-6.31184e-08
8.6961e-06
-3.67167e-07
1.06994e-05
-5.99242e-07
1.16461e-05
-7.38679e-07
1.15905e-05
-8.11987e-07
1.05674e-05
-8.58315e-07
8.88254e-06
-9.12856e-07
6.91029e-06
-9.94822e-07
4.91521e-06
-1.11076e-06
3.00627e-06
-1.26073e-06
1.17154e-06
-1.44423e-06
-6.39316e-07
-1.66093e-06
-2.4581e-06
-1.9097e-06
-4.29015e-06
-2.23118e-06
-6.11787e-06
-2.73542e-06
-8.0607e-06
-3.47825e-06
-1.06699e-05
-3.97936e-06
-1.48712e-05
-2.99287e-06
-1.94301e-05
-1.60054e-05
4.19811e-07
4.03754e-06
5.96099e-07
8.51981e-06
6.43556e-07
1.0652e-05
6.97255e-07
1.15924e-05
7.72169e-07
1.15156e-05
8.35959e-07
1.05036e-05
8.59621e-07
8.85888e-06
8.30626e-07
6.93928e-06
7.49289e-07
4.99654e-06
6.21486e-07
3.13408e-06
4.46492e-07
1.34653e-06
2.19514e-07
-4.12339e-07
-5.71904e-08
-2.18139e-06
-3.99507e-07
-3.94783e-06
-8.10558e-07
-5.70682e-06
-1.35217e-06
-7.51909e-06
-2.17809e-06
-9.84398e-06
-2.95863e-06
-1.40907e-05
-2.4643e-06
-1.99244e-05
-1.84697e-05
6.23647e-07
3.41389e-06
1.1496e-06
7.99385e-06
1.51834e-06
1.02833e-05
1.85655e-06
1.12542e-05
2.16728e-06
1.12049e-05
2.40301e-06
1.02679e-05
2.53775e-06
8.72414e-06
2.57404e-06
6.903e-06
2.52742e-06
5.04316e-06
2.41021e-06
3.25128e-06
2.22204e-06
1.5347e-06
1.94614e-06
-1.3644e-07
1.58626e-06
-1.82152e-06
1.13993e-06
-3.50149e-06
6.00223e-07
-5.16712e-06
-9.47995e-08
-6.82407e-06
-9.96888e-07
-8.9419e-06
-1.98182e-06
-1.31057e-05
-1.95541e-06
-1.99508e-05
-2.04252e-05
7.07266e-07
2.70662e-06
1.51991e-06
7.18121e-06
2.19784e-06
9.60532e-06
2.82617e-06
1.06259e-05
3.40057e-06
1.06305e-05
3.86082e-06
9.80763e-06
4.1694e-06
8.41557e-06
4.32702e-06
6.74537e-06
4.35465e-06
5.01553e-06
4.27116e-06
3.33478e-06
4.07848e-06
1.72738e-06
3.76552e-06
1.76527e-07
3.32228e-06
-1.37828e-06
2.74676e-06
-2.92597e-06
2.03864e-06
-4.459e-06
1.21112e-06
-5.99655e-06
1.56395e-07
-7.88717e-06
-1.06977e-06
-1.18796e-05
-1.48066e-06
-1.95399e-05
-2.19058e-05
6.43845e-07
2.06278e-06
1.612e-06
6.21305e-06
2.54596e-06
8.67137e-06
3.46959e-06
9.70227e-06
4.3459e-06
9.75417e-06
5.09391e-06
9.05961e-06
5.65224e-06
7.85724e-06
6.00644e-06
6.39118e-06
6.17143e-06
4.85054e-06
6.16733e-06
3.33888e-06
6.00017e-06
1.89453e-06
5.66168e-06
5.15017e-07
5.13339e-06
-8.49984e-07
4.42119e-06
-2.21377e-06
3.52222e-06
-3.56003e-06
2.46939e-06
-4.94372e-06
1.20837e-06
-6.62615e-06
-2.6936e-07
-1.04019e-05
-9.98964e-07
-1.88103e-05
-2.29048e-05
4.48909e-07
1.61387e-06
1.41634e-06
5.24562e-06
2.58785e-06
7.49986e-06
3.82436e-06
8.46576e-06
5.03631e-06
8.54223e-06
6.11461e-06
7.98131e-06
6.97297e-06
6.99888e-06
7.57807e-06
5.78608e-06
7.9317e-06
4.49691e-06
8.04876e-06
3.22182e-06
7.93758e-06
2.00571e-06
7.60023e-06
8.52364e-07
6.99552e-06
-2.45273e-07
6.14762e-06
-1.36588e-06
5.04765e-06
-2.46006e-06
3.74745e-06
-3.64352e-06
2.29672e-06
-5.17542e-06
7.34856e-07
-8.83999e-06
-2.52076e-07
-1.78234e-05
-2.31569e-05
7.53428e-08
1.53853e-06
7.48741e-07
4.57222e-06
2.01882e-06
6.22978e-06
3.56352e-06
6.92106e-06
5.16501e-06
6.94073e-06
6.63936e-06
6.50697e-06
7.86656e-06
5.77168e-06
8.79709e-06
4.85555e-06
9.41206e-06
3.88194e-06
9.71905e-06
2.91483e-06
9.71943e-06
2.00532e-06
9.42233e-06
1.14947e-06
8.81217e-06
3.64885e-07
7.87217e-06
-4.2587e-07
6.63198e-06
-1.21987e-06
5.14004e-06
-2.15158e-06
3.55436e-06
-3.58974e-06
2.01598e-06
-7.30161e-06
5.6365e-07
-1.63711e-05
-2.25932e-05
-4.71989e-07
2.01052e-06
6.45838e-08
4.03565e-06
1.34419e-06
4.95017e-06
3.13978e-06
5.12547e-06
5.08571e-06
4.9948e-06
6.91047e-06
4.68222e-06
8.46467e-06
4.21747e-06
9.69019e-06
3.63003e-06
1.05527e-05
3.01944e-06
1.10627e-05
2.40482e-06
1.12205e-05
1.84749e-06
1.10487e-05
1.3213e-06
1.05542e-05
8.59364e-07
9.74328e-06
3.85063e-07
8.63122e-06
-1.07819e-07
7.26609e-06
-7.86448e-07
5.84716e-06
-2.17081e-06
4.21978e-06
-5.67423e-06
1.95516e-06
-1.41065e-05
-2.0638e-05
-4.1335e-06
6.14402e-06
-3.65831e-06
3.56046e-06
-1.45931e-06
2.75117e-06
1.09265e-06
2.5735e-06
3.60298e-06
2.48447e-06
5.9575e-06
2.3277e-06
8.05334e-06
2.12164e-06
9.82527e-06
1.8581e-06
1.12432e-05
1.60152e-06
1.2323e-05
1.32499e-06
1.30748e-05
1.09569e-06
1.35389e-05
8.57227e-07
1.37111e-05
6.87122e-07
1.36155e-05
4.80732e-07
1.32128e-05
2.94835e-07
1.2522e-05
-9.56555e-08
1.15773e-05
-1.22611e-06
9.95186e-06
-4.04876e-06
5.57073e-06
-9.72532e-06
-1.50673e-05
6.14402e-06
9.70448e-06
1.24556e-05
1.50292e-05
1.75136e-05
1.98413e-05
2.1963e-05
2.38211e-05
2.54226e-05
2.67476e-05
2.78433e-05
2.87005e-05
2.93876e-05
2.98683e-05
3.01632e-05
3.00675e-05
2.88414e-05
2.47926e-05
1.50673e-05
)
;

boundaryField
{
    movingWall
    {
        type            calculated;
        value           uniform 0;
    }
    fixedWalls
    {
        type            calculated;
        value           uniform 0;
    }
    frontAndBack
    {
        type            empty;
        value           nonuniform List<scalar> 0();
    }
}


// ************************************************************************* //
