/*--------------------------------*- C++ -*----------------------------------*\
| =========                 |                                                 |
| \\      /  F ield         | OpenFOAM: The Open Source CFD Toolbox           |
|  \\    /   O peration     | Version:  2212                                  |
|   \\  /    A nd           | Website:  www.openfoam.com                      |
|    \\/     M anipulation  |                                                 |
\*---------------------------------------------------------------------------*/
FoamFile
{
    version     2.0;
    format      ascii;
    arch        "LSB;label=32;scalar=64";
    class       volScalarField;
    location    "1.505";
    object      p;
}
// * * * * * * * * * * * * * * * * * * * * * * * * * * * * * * * * * * * * * //

dimensions      [0 2 -2 0 0 0 0];

internalField   nonuniform List<scalar> 
400
(
2.85014e-06
-0.00582513
-0.0129632
-0.0184157
-0.0204334
-0.0182399
-0.0117753
-0.00148505
0.0118361
0.027148
0.0432434
0.0588221
0.0725778
0.0833077
0.0900521
0.0922663
0.0900251
0.0842431
0.0768798
0.0710663
0.00578092
-0.000218411
-0.00580444
-0.00954328
-0.0105999
-0.00843386
-0.00297121
0.00547283
0.0163016
0.0287105
0.0417487
0.054385
0.0655856
0.0744091
0.0801195
0.082315
0.0810765
0.077054
0.0712732
0.0653169
0.013335
0.00503336
-0.000995827
-0.0044238
-0.0052738
-0.00326499
0.00160113
0.00902627
0.0185008
0.0293481
0.0407643
0.0518687
0.0617676
0.0696355
0.0748061
0.0768772
0.0758407
0.0720849
0.0658045
0.0575344
0.0201393
0.00869558
0.0012253
-0.00266923
-0.00372295
-0.00188629
0.00273013
0.00978329
0.018779
0.0290937
0.0399908
0.050653
0.060232
0.067915
0.0730023
0.0750005
0.0737648
0.069455
0.0616018
0.0501013
0.0245019
0.00977273
0.000589198
-0.00398762
-0.00530304
-0.00350825
0.00117369
0.00833336
0.0174607
0.0279477
0.0390837
0.0500687
0.0600478
0.0681641
0.0736254
0.0757967
0.0743679
0.0692886
0.0595243
0.0445358
0.0251777
0.00714966
-0.00380259
-0.00905791
-0.0105129
-0.00850084
-0.00335776
0.00442835
0.0143121
0.0256777
0.0378125
0.049902
0.0610469
0.070302
0.0767336
0.0795158
0.0781378
0.0723323
0.060538
0.0418886
0.0210932
-0.000262762
-0.0129351
-0.01871
-0.0200306
-0.0174148
-0.0113193
-0.00232065
0.00898936
0.021975
0.0359084
0.0499431
0.0631109
0.0743441
0.0825207
0.0865684
0.0857196
0.0794459
0.0656191
0.0430703
0.0111424
-0.0136187
-0.0278756
-0.0338549
-0.0346043
-0.0308583
-0.0232137
-0.0123461
0.00110389
0.0164828
0.0330514
0.0499324
0.0660821
0.0802887
0.0911995
0.0974289
0.0978692
0.0916349
0.0758951
0.0491152
-0.00596777
-0.0342671
-0.0498706
-0.0555493
-0.0550909
-0.0495154
-0.0395944
-0.0261142
-0.00975802
0.00882204
0.0289
0.0495924
0.0697963
0.0881534
0.103046
0.1127
0.115549
0.110191
0.0928332
0.0614103
-0.0318579
-0.0638769
-0.0804176
-0.0850078
-0.0824208
-0.0740791
-0.0609818
-0.0440375
-0.0239524
-0.00133781
0.0231447
0.04866
0.0740946
0.0979712
0.118395
0.133125
0.139988
0.136817
0.11844
0.0819328
-0.0686682
-0.104604
-0.121345
-0.123591
-0.117516
-0.105127
-0.0877191
-0.0663264
-0.0416379
-0.0141565
0.0156047
0.0469523
0.0788549
0.109793
0.137623
0.159585
0.172726
0.173777
0.15552
0.11357
-0.119403
-0.159358
-0.174916
-0.172758
-0.161148
-0.142929
-0.11976
-0.0927777
-0.0625782
-0.0294485
0.00637233
0.0444727
0.0840544
0.123702
0.161135
0.193085
0.215667
0.224076
0.20805
0.160632
-0.188629
-0.232243
-0.243939
-0.233948
-0.213695
-0.187155
-0.156373
-0.122502
-0.0858984
-0.0464727
-0.00401506
0.0415382
0.0898416
0.139829
0.189318
0.234689
0.271074
0.291664
0.281742
0.229775
-0.283975
-0.329305
-0.331832
-0.30828
-0.274709
-0.23644
-0.195764
-0.15361
-0.10984
-0.0637453
-0.0144381
0.0388632
0.0965541
0.158276
0.222374
0.285288
0.341397
0.381575
0.384914
0.331834
-0.419318
-0.459671
-0.44235
-0.395792
-0.342129
-0.287739
-0.234615
-0.182929
-0.131609
-0.0789846
-0.0232137
0.0374756
0.104553
0.178838
0.259861
0.34497
0.428616
0.4997
0.529675
0.485392
-0.620531
-0.636743
-0.578676
-0.494192
-0.41124
-0.335657
-0.267779
-0.205977
-0.147536
-0.0893821
-0.0284252
0.0383492
0.113808
0.200472
0.299976
0.412026
0.53303
0.651776
0.732772
0.722396
-0.935923
-0.878514
-0.74174
-0.597947
-0.474391
-0.372658
-0.288867
-0.217761
-0.153952
-0.0924626
-0.028716
0.041697
0.123265
0.220719
0.338927
0.482156
0.651998
0.841343
1.01527
1.0975
-1.47642
-1.20663
-0.920502
-0.691386
-0.517303
-0.387542
-0.290059
-0.213336
-0.148122
-0.087214
-0.0245762
0.0454589
0.128939
0.233072
0.367105
0.542679
0.771294
1.05932
1.40329
1.73014
-2.53965
-1.63055
-1.04444
-0.710957
-0.495749
-0.352091
-0.254529
-0.183581
-0.126168
-0.0735936
-0.0192676
0.0427883
0.119214
0.218784
0.354814
0.547985
0.826394
1.23658
1.91168
2.92419
-4.36666
-2.04463
-0.97354
-0.563179
-0.357844
-0.240145
-0.170118
-0.123781
-0.0874796
-0.0535088
-0.0166531
0.027662
0.0846088
0.161731
0.272413
0.4421
0.71822
1.22571
2.41104
4.84853
)
;

boundaryField
{
    movingWall
    {
        type            zeroGradient;
    }
    fixedWalls
    {
        type            zeroGradient;
    }
    frontAndBack
    {
        type            empty;
    }
}


// ************************************************************************* //
