/*--------------------------------*- C++ -*----------------------------------*\
| =========                 |                                                 |
| \\      /  F ield         | OpenFOAM: The Open Source CFD Toolbox           |
|  \\    /   O peration     | Version:  2212                                  |
|   \\  /    A nd           | Website:  www.openfoam.com                      |
|    \\/     M anipulation  |                                                 |
\*---------------------------------------------------------------------------*/
FoamFile
{
    version     2.0;
    format      ascii;
    arch        "LSB;label=32;scalar=64";
    class       volScalarField;
    location    "3.11";
    object      p;
}
// * * * * * * * * * * * * * * * * * * * * * * * * * * * * * * * * * * * * * //

dimensions      [0 2 -2 0 0 0 0];

internalField   nonuniform List<scalar> 
400
(
2.52713e-08
-0.000147025
-0.000515591
-0.00103303
-0.00167051
-0.00240203
-0.00306867
-0.00346681
-0.00342881
-0.00280357
-0.00144454
0.00067442
0.00325424
0.00549724
0.00654863
0.00602076
0.00419331
0.00239862
0.00137312
0.00129541
0.000117058
-5.15828e-05
-0.000356495
-0.000731693
-0.00119816
-0.00181777
-0.00259791
-0.00339295
-0.00389826
-0.00375121
-0.00268551
-0.000713012
0.00175025
0.00399818
0.005188
0.00487852
0.00333046
0.0016447
0.000870158
0.000945786
0.000517006
0.000260545
-6.61569e-05
-0.000530682
-0.0012852
-0.00246035
-0.0040198
-0.0057014
-0.0070571
-0.00757679
-0.006921
-0.00516694
-0.00265554
-3.88745e-06
0.00197316
0.00263918
0.0019728
0.000796366
-9.5383e-05
-0.000108463
0.00109226
0.000700551
0.000183022
-0.000732202
-0.00232016
-0.00468123
-0.0075956
-0.0105872
-0.0130715
-0.0144996
-0.0145387
-0.0132202
-0.0107513
-0.00757152
-0.00436474
-0.00186632
-0.000549762
-0.000397302
-0.000980727
-0.00161132
0.00146214
0.00088797
-4.19267e-05
-0.001827
-0.00473767
-0.00870151
-0.0132249
-0.0176117
-0.0212199
-0.023588
-0.0244559
-0.0237043
-0.021444
-0.0179475
-0.0136385
-0.00911435
-0.00516176
-0.00260327
-0.00189162
-0.00368128
0.00113842
0.000342244
-0.00118626
-0.00409844
-0.00853649
-0.0141262
-0.0200577
-0.0254917
-0.0298218
-0.0327286
-0.0340826
-0.0337853
-0.0319053
-0.0285773
-0.0239308
-0.0181777
-0.0119094
-0.00651749
-0.00405968
-0.00615018
-0.000185259
-0.00121572
-0.00340451
-0.00743327
-0.0132305
-0.0200726
-0.0269023
-0.0328453
-0.0374035
-0.0404119
-0.0418783
-0.0418241
-0.0403084
-0.0373898
-0.033034
-0.0271138
-0.0197384
-0.0121341
-0.00744828
-0.00741361
-0.00251018
-0.00372091
-0.00647475
-0.0113649
-0.0181013
-0.0256701
-0.0328784
-0.0389039
-0.0433895
-0.0462977
-0.0477218
-0.0477602
-0.0464894
-0.0439481
-0.0400737
-0.0346156
-0.0272993
-0.0186282
-0.0113331
-0.00766154
-0.00547919
-0.00677001
-0.00989161
-0.0152902
-0.0225053
-0.0303424
-0.0375712
-0.0434602
-0.0477717
-0.0505478
-0.0519187
-0.0519978
-0.0508599
-0.0485549
-0.0450773
-0.0402458
-0.0336206
-0.0250143
-0.0160727
-0.00957787
-0.00855165
-0.00981581
-0.0130893
-0.0186572
-0.0259643
-0.0337565
-0.0408314
-0.0465346
-0.0506978
-0.0533909
-0.0547422
-0.0548468
-0.0537689
-0.0515726
-0.0483229
-0.0439828
-0.038204
-0.0304216
-0.021512
-0.0137398
-0.0112263
-0.0123921
-0.015614
-0.0210705
-0.0281816
-0.0357449
-0.042618
-0.048179
-0.0522697
-0.0549432
-0.056305
-0.0564275
-0.0553624
-0.0531797
-0.0500048
-0.0459417
-0.0408903
-0.034175
-0.0262649
-0.0184215
-0.0132205
-0.0142036
-0.0172096
-0.0223034
-0.0289849
-0.0361942
-0.0428729
-0.0483809
-0.0524979
-0.0552248
-0.0566288
-0.056763
-0.0556705
-0.0534215
-0.0501937
-0.0462039
-0.041658
-0.0358432
-0.02907
-0.0215942
-0.0144981
-0.0151569
-0.0177298
-0.0222484
-0.0283174
-0.0350839
-0.0415864
-0.0471296
-0.0513754
-0.0542344
-0.0557197
-0.0558623
-0.0547004
-0.0523257
-0.0489393
-0.0448219
-0.040531
-0.0352031
-0.0293472
-0.0221321
-0.0151449
-0.0153573
-0.0172398
-0.0209124
-0.0261759
-0.0324126
-0.0387462
-0.0443969
-0.0488747
-0.0519608
-0.0535916
-0.053768
-0.0525171
-0.0499513
-0.0463143
-0.0419706
-0.0375397
-0.0322871
-0.0274051
-0.0197132
-0.0152822
-0.0150024
-0.0159303
-0.0184503
-0.0226891
-0.0282902
-0.0344442
-0.0402605
-0.045069
-0.0484873
-0.0503481
-0.0505998
-0.0492779
-0.0464777
-0.0425066
-0.0377774
-0.0329424
-0.0275724
-0.0238444
-0.0141522
-0.01503
-0.0143314
-0.0140062
-0.0150339
-0.0180412
-0.0229092
-0.0288687
-0.0348939
-0.0401198
-0.0439792
-0.0461812
-0.0466052
-0.0452772
-0.0422635
-0.0379102
-0.0326509
-0.0272257
-0.0215535
-0.0181695
-0.00402597
-0.0144768
-0.0134803
-0.011618
-0.010966
-0.0126726
-0.0168027
-0.0225884
-0.0288547
-0.0345608
-0.0389561
-0.0416223
-0.0423441
-0.0411172
-0.0379802
-0.0332315
-0.0272399
-0.0207238
-0.0137107
-0.00748528
0.0154137
-0.0144914
-0.0126109
-0.00872523
-0.00639375
-0.0069829
-0.010566
-0.0162826
-0.022826
-0.0290482
-0.0340438
-0.0372888
-0.0384503
-0.0374756
-0.0343643
-0.0292591
-0.0221789
-0.0133371
-0.00162714
0.0154865
0.0560359
-0.0117992
-0.0119002
-0.00599942
-0.00218323
-0.00211908
-0.00553092
-0.011353
-0.0182053
-0.0249107
-0.0304573
-0.0342907
-0.0359928
-0.0354701
-0.0324526
-0.0267864
-0.017665
-0.00387034
0.019262
0.0592742
0.128626
-0.0294993
-0.0107804
-0.000996006
0.00255871
0.00197183
-0.00181234
-0.00791024
-0.0150736
-0.0221323
-0.0280503
-0.0322502
-0.0342929
-0.0340473
-0.0310971
-0.0247957
-0.0129567
0.00873169
0.0500131
0.121583
0.224979
)
;

boundaryField
{
    movingWall
    {
        type            zeroGradient;
    }
    fixedWalls
    {
        type            zeroGradient;
    }
    frontAndBack
    {
        type            empty;
    }
}


// ************************************************************************* //
