/*--------------------------------*- C++ -*----------------------------------*\
| =========                 |                                                 |
| \\      /  F ield         | OpenFOAM: The Open Source CFD Toolbox           |
|  \\    /   O peration     | Version:  2212                                  |
|   \\  /    A nd           | Website:  www.openfoam.com                      |
|    \\/     M anipulation  |                                                 |
\*---------------------------------------------------------------------------*/
FoamFile
{
    version     2.0;
    format      ascii;
    arch        "LSB;label=32;scalar=64";
    class       volVectorField;
    location    "2.725";
    object      U;
}
// * * * * * * * * * * * * * * * * * * * * * * * * * * * * * * * * * * * * * //

dimensions      [0 1 -1 0 0 0 0];

internalField   nonuniform List<vector> 
400
(
(0.00150624 -0.00153568 0)
(0.00428619 -0.00170737 0)
(0.00574942 -0.00109871 0)
(0.00477554 -0.000504885 0)
(0.000816232 0.000244506 0)
(-0.00715556 0.00170992 0)
(-0.0201336 0.00447052 0)
(-0.0379426 0.00806724 0)
(-0.0580787 0.0105313 0)
(-0.0757311 0.0100025 0)
(-0.0863567 0.00661191 0)
(-0.0874732 0.00178349 0)
(-0.0781375 -0.00327867 0)
(-0.0590233 -0.00781027 0)
(-0.0337158 -0.0103669 0)
(-0.00648756 -0.00945287 0)
(0.0149515 -0.00480929 0)
(0.0228188 0.00246677 0)
(0.0153422 0.00608678 0)
(0.00415567 0.00448941 0)
(0.00142153 -0.00443321 0)
(0.00236506 -0.0033798 0)
(-0.00137715 0.000811808 0)
(-0.0118218 0.00623018 0)
(-0.0307303 0.0133033 0)
(-0.0586266 0.0223102 0)
(-0.0924189 0.031058 0)
(-0.12569 0.0352003 0)
(-0.152556 0.0322557 0)
(-0.169631 0.0229423 0)
(-0.175389 0.00941016 0)
(-0.169725 -0.00605491 0)
(-0.153205 -0.0217094 0)
(-0.126456 -0.0351522 0)
(-0.091688 -0.0428027 0)
(-0.0515994 -0.04049 0)
(-0.0119667 -0.0258962 0)
(0.0155532 -0.00191158 0)
(0.016955 0.015193 0)
(0.00536146 0.0141294 0)
(-0.000476555 -0.00466355 0)
(-0.00572834 0.0016572 0)
(-0.019415 0.0139297 0)
(-0.0428842 0.029519 0)
(-0.0765784 0.0465582 0)
(-0.116354 0.0608657 0)
(-0.155086 0.0673529 0)
(-0.18727 0.0636836 0)
(-0.210595 0.0509225 0)
(-0.224362 0.0313859 0)
(-0.2285 0.0073427 0)
(-0.223571 -0.0192015 0)
(-0.209876 -0.0461411 0)
(-0.186941 -0.069977 0)
(-0.15449 -0.085705 0)
(-0.112534 -0.086446 0)
(-0.0629273 -0.0655231 0)
(-0.013861 -0.0231171 0)
(0.00905758 0.0164629 0)
(0.00413926 0.0225505 0)
(-0.00338347 0.00157872 0)
(-0.0168199 0.0173861 0)
(-0.0414802 0.0395231 0)
(-0.0755876 0.0643657 0)
(-0.116689 0.0863608 0)
(-0.158073 0.0991601 0)
(-0.193413 0.0991321 0)
(-0.220432 0.087129 0)
(-0.239237 0.0660864 0)
(-0.250358 0.0386414 0)
(-0.25457 0.00666277 0)
(-0.252645 -0.0285305 0)
(-0.244538 -0.0648242 0)
(-0.229214 -0.0993248 0)
(-0.204719 -0.126729 0)
(-0.168412 -0.13842 0)
(-0.117917 -0.122492 0)
(-0.055288 -0.0698064 0)
(-0.00115573 0.00224343 0)
(0.00471447 0.0270595 0)
(-0.00628668 0.0151922 0)
(-0.0270732 0.0427379 0)
(-0.0597105 0.0731414 0)
(-0.0987576 0.103215 0)
(-0.139917 0.125102 0)
(-0.176436 0.13283 0)
(-0.204557 0.125445 0)
(-0.224341 0.106107 0)
(-0.236987 0.0785733 0)
(-0.244123 0.0456066 0)
(-0.247431 0.00876857 0)
(-0.247876 -0.0311671 0)
(-0.2453 -0.0731148 0)
(-0.239048 -0.115765 0)
(-0.226395 -0.15528 0)
(-0.202752 -0.183359 0)
(-0.162257 -0.184944 0)
(-0.100459 -0.139633 0)
(-0.0216583 -0.0388918 0)
(0.00711236 0.0259143 0)
(-0.00794708 0.0339718 0)
(-0.0329526 0.0734314 0)
(-0.0687761 0.109157 0)
(-0.107129 0.140561 0)
(-0.143342 0.159096 0)
(-0.171952 0.160256 0)
(-0.191526 0.145582 0)
(-0.203376 0.119825 0)
(-0.209404 0.0873102 0)
(-0.212036 0.0510409 0)
(-0.213332 0.0125224 0)
(-0.214385 -0.0278674 0)
(-0.215448 -0.0706137 0)
(-0.21653 -0.116184 0)
(-0.215442 -0.163436 0)
(-0.207055 -0.206938 0)
(-0.183355 -0.232573 0)
(-0.135947 -0.213394 0)
(-0.0606891 -0.11617 0)
(0.00546166 0.0134461 0)
(-0.00771174 0.0546239 0)
(-0.0330374 0.105018 0)
(-0.067564 0.143183 0)
(-0.101404 0.173028 0)
(-0.130459 0.186452 0)
(-0.15087 0.180615 0)
(-0.162861 0.159095 0)
(-0.168391 0.127814 0)
(-0.169802 0.0915899 0)
(-0.169636 0.0535236 0)
(-0.169567 0.0149249 0)
(-0.170374 -0.0241873 0)
(-0.172651 -0.0650172 0)
(-0.176948 -0.109048 0)
(-0.182558 -0.157527 0)
(-0.185714 -0.209319 0)
(-0.178414 -0.255287 0)
(-0.150713 -0.269155 0)
(-0.096442 -0.201219 0)
(-0.00856289 -0.014771 0)
(-0.00569607 0.0738214 0)
(-0.0278309 0.134004 0)
(-0.0577898 0.172718 0)
(-0.0852409 0.199431 0)
(-0.106951 0.207166 0)
(-0.120549 0.19462 0)
(-0.127226 0.167057 0)
(-0.129196 0.131323 0)
(-0.12889 0.0925485 0)
(-0.128376 0.0536139 0)
(-0.128489 0.0153502 0)
(-0.129459 -0.0226384 0)
(-0.131787 -0.0614926 0)
(-0.13625 -0.102674 0)
(-0.143471 -0.148419 0)
(-0.152021 -0.201242 0)
(-0.155669 -0.258983 0)
(-0.143968 -0.301613 0)
(-0.109799 -0.271435 0)
(-0.0298386 -0.0732911 0)
(-0.00252704 0.0887055 0)
(-0.019047 0.157802 0)
(-0.0424774 0.196187 0)
(-0.062962 0.21916 0)
(-0.078079 0.221575 0)
(-0.086614 0.20349 0)
(-0.0901606 0.171357 0)
(-0.0908221 0.132623 0)
(-0.0907169 0.0925178 0)
(-0.0911556 0.0535053 0)
(-0.0922517 0.0157869 0)
(-0.0938881 -0.0214712 0)
(-0.0962608 -0.0591677 0)
(-0.0999722 -0.0981725 0)
(-0.106286 -0.140428 0)
(-0.115968 -0.190262 0)
(-0.12561 -0.252135 0)
(-0.124582 -0.316499 0)
(-0.105713 -0.328021 0)
(-0.0364944 -0.158586 0)
(0.00112641 0.0971621 0)
(-0.00831593 0.174722 0)
(-0.024129 0.2131 0)
(-0.0376799 0.232947 0)
(-0.0470883 0.23133 0)
(-0.051975 0.209311 0)
(-0.0538475 0.174134 0)
(-0.0543595 0.133669 0)
(-0.0550668 0.0931196 0)
(-0.0566174 0.054439 0)
(-0.0587687 0.0172383 0)
(-0.0613045 -0.0196132 0)
(-0.0642106 -0.0568427 0)
(-0.0677564 -0.094755 0)
(-0.0730344 -0.134322 0)
(-0.081812 -0.179753 0)
(-0.0940671 -0.239849 0)
(-0.0996019 -0.317047 0)
(-0.0941908 -0.365392 0)
(-0.0305979 -0.236832 0)
(0.00469528 0.0981902 0)
(0.00277381 0.183778 0)
(-0.00510127 0.223177 0)
(-0.0119881 0.240725 0)
(-0.0163549 0.236365 0)
(-0.018245 0.212145 0)
(-0.0188863 0.175661 0)
(-0.0193403 0.1348 0)
(-0.0205658 0.0945376 0)
(-0.0227809 0.0564389 0)
(-0.0256339 0.0198084 0)
(-0.0289799 -0.0165772 0)
(-0.0328054 -0.0534436 0)
(-0.037131 -0.090848 0)
(-0.0426254 -0.128873 0)
(-0.0507934 -0.170484 0)
(-0.0645663 -0.226326 0)
(-0.0739561 -0.310312 0)
(-0.0808078 -0.389646 0)
(-0.0228553 -0.300894 0)
(0.0076763 0.0921687 0)
(0.0131954 0.184681 0)
(0.0131505 0.226573 0)
(0.0127515 0.24341 0)
(0.0133227 0.238043 0)
(0.0145021 0.213328 0)
(0.0153558 0.176886 0)
(0.0153764 0.136432 0)
(0.0141788 0.0967158 0)
(0.0118188 0.0592094 0)
(0.00863258 0.0232361 0)
(0.00464716 -0.0124077 0)
(-0.000244677 -0.0485307 0)
(-0.00597688 -0.085212 0)
(-0.0129857 -0.122084 0)
(-0.0217055 -0.160583 0)
(-0.0375077 -0.210911 0)
(-0.0493087 -0.296494 0)
(-0.068098 -0.401644 0)
(-0.0145951 -0.353806 0)
(0.00925707 0.0802582 0)
(0.0215826 0.177509 0)
(0.0289502 0.222832 0)
(0.034662 0.239992 0)
(0.0401765 0.234806 0)
(0.0450699 0.211032 0)
(0.0484531 0.175961 0)
(0.050023 0.136898 0)
(0.049751 0.0983777 0)
(0.0478839 0.0619137 0)
(0.0447346 0.0270291 0)
(0.0402616 -0.00739677 0)
(0.0342936 -0.0421886 0)
(0.0268644 -0.077535 0)
(0.0172769 -0.112981 0)
(0.00641357 -0.148993 0)
(-0.0126672 -0.194403 0)
(-0.0255828 -0.278301 0)
(-0.0564926 -0.404368 0)
(-0.00640814 -0.396016 0)
(0.00875704 0.0645891 0)
(0.0265499 0.162729 0)
(0.0411553 0.212291 0)
(0.0532092 0.231428 0)
(0.064185 0.227936 0)
(0.0737068 0.206499 0)
(0.0808158 0.173941 0)
(0.0851348 0.137021 0)
(0.0867473 0.100128 0)
(0.0860006 0.0649781 0)
(0.0832484 0.0314789 0)
(0.0783902 -0.00132469 0)
(0.0712077 -0.0340637 0)
(0.0618809 -0.0672334 0)
(0.0492394 -0.100519 0)
(0.0348817 -0.133908 0)
(0.0110901 -0.174512 0)
(-0.00195883 -0.255249 0)
(-0.0458448 -0.400554 0)
(0.00235278 -0.431103 0)
(0.00610679 0.0485137 0)
(0.0265751 0.142579 0)
(0.0471044 0.194606 0)
(0.0652007 0.215141 0)
(0.0821499 0.213459 0)
(0.0975157 0.195115 0)
(0.109966 0.16628 0)
(0.118743 0.132877 0)
(0.123747 0.098963 0)
(0.125264 0.0663551 0)
(0.123591 0.0353559 0)
(0.11883 0.00525016 0)
(0.110467 -0.0243529 0)
(0.0991028 -0.0541599 0)
(0.0826988 -0.0841346 0)
(0.0641541 -0.11491 0)
(0.0350073 -0.151748 0)
(0.0214297 -0.22958 0)
(-0.0357806 -0.393445 0)
(0.0128668 -0.460301 0)
(0.00205792 0.0352085 0)
(0.0211265 0.119593 0)
(0.0465731 0.17246 0)
(0.0710447 0.19452 0)
(0.0948118 0.194911 0)
(0.117047 0.179999 0)
(0.136052 0.155546 0)
(0.15055 0.126556 0)
(0.16009 0.0966107 0)
(0.164875 0.0674922 0)
(0.164893 0.0398421 0)
(0.160818 0.0133183 0)
(0.151351 -0.0123913 0)
(0.138025 -0.0378909 0)
(0.117505 -0.0634639 0)
(0.0947349 -0.0907047 0)
(0.0600348 -0.124763 0)
(0.0442371 -0.201068 0)
(-0.0243903 -0.383068 0)
(0.0276653 -0.482681 0)
(-0.00323618 0.0303016 0)
(0.00818297 0.0993515 0)
(0.0329916 0.142934 0)
(0.0631853 0.162375 0)
(0.0947608 0.163908 0)
(0.125416 0.152769 0)
(0.152612 0.133719 0)
(0.17458 0.110645 0)
(0.190272 0.0865381 0)
(0.199948 0.0629466 0)
(0.202896 0.0406845 0)
(0.200675 0.01964 0)
(0.190873 -0.000415874 0)
(0.176717 -0.0200331 0)
(0.152836 -0.0395957 0)
(0.127245 -0.0622936 0)
(0.0873324 -0.0953562 0)
(0.0668898 -0.174657 0)
(-0.00612134 -0.367416 0)
(0.0512848 -0.490038 0)
(-0.0127687 0.0202477 0)
(-0.00764707 0.0880423 0)
(0.0162464 0.121111 0)
(0.0511861 0.132587 0)
(0.0902708 0.131839 0)
(0.128901 0.123177 0)
(0.163819 0.109414 0)
(0.19266 0.0926063 0)
(0.21399 0.0750803 0)
(0.228659 0.0577836 0)
(0.234746 0.0417623 0)
(0.235749 0.0268299 0)
(0.22708 0.0133279 0)
(0.215813 0.000239231 0)
(0.192103 -0.0129535 0)
(0.169662 -0.0312923 0)
(0.127345 -0.0636257 0)
(0.104362 -0.143222 0)
(0.0358148 -0.325552 0)
(0.0917315 -0.455474 0)
(-0.105241 0.0836378 0)
(-0.0773632 0.0696497 0)
(-0.0495016 0.0719026 0)
(0.000832879 0.0753077 0)
(0.0521462 0.0752302 0)
(0.102852 0.0711217 0)
(0.148417 0.0642625 0)
(0.189482 0.0554263 0)
(0.220892 0.0463663 0)
(0.248559 0.0372593 0)
(0.264379 0.0291603 0)
(0.279709 0.0216362 0)
(0.280809 0.0153789 0)
(0.285669 0.0093604 0)
(0.270876 0.0028613 0)
(0.265022 -0.00817003 0)
(0.227307 -0.0337544 0)
(0.215499 -0.0944396 0)
(0.14946 -0.229615 0)
(0.170529 -0.341507 0)
(0.130468 0.104204 0)
(0.159399 0.0762821 0)
(0.213772 0.0543068 0)
(0.271996 0.0423934 0)
(0.323662 0.0363444 0)
(0.374779 0.032135 0)
(0.418087 0.0289945 0)
(0.462227 0.0256277 0)
(0.494525 0.0229896 0)
(0.529237 0.019844 0)
(0.548523 0.0177589 0)
(0.574411 0.0148746 0)
(0.580938 0.013513 0)
(0.599839 0.0107447 0)
(0.592097 0.00985005 0)
(0.601514 0.00544035 0)
(0.56673 0.000504479 0)
(0.547655 -0.0180035 0)
(0.436478 -0.0502987 0)
(0.337216 -0.101389 0)
)
;

boundaryField
{
    movingWall
    {
        type            fixedValue;
        value           uniform (1 0 0);
    }
    fixedWalls
    {
        type            noSlip;
    }
    frontAndBack
    {
        type            empty;
    }
}


// ************************************************************************* //
