/*--------------------------------*- C++ -*----------------------------------*\
| =========                 |                                                 |
| \\      /  F ield         | OpenFOAM: The Open Source CFD Toolbox           |
|  \\    /   O peration     | Version:  2212                                  |
|   \\  /    A nd           | Website:  www.openfoam.com                      |
|    \\/     M anipulation  |                                                 |
\*---------------------------------------------------------------------------*/
FoamFile
{
    version     2.0;
    format      ascii;
    arch        "LSB;label=32;scalar=64";
    class       volVectorField;
    location    "2.875";
    object      U;
}
// * * * * * * * * * * * * * * * * * * * * * * * * * * * * * * * * * * * * * //

dimensions      [0 1 -1 0 0 0 0];

internalField   nonuniform List<vector> 
400
(
(0.0015413 -0.00156485 0)
(0.00439602 -0.00174381 0)
(0.00591457 -0.00111749 0)
(0.00494664 -0.000517452 0)
(0.00095164 0.00023353 0)
(-0.00711013 0.00171759 0)
(-0.0202482 0.00453601 0)
(-0.0382791 0.00820416 0)
(-0.0586433 0.0106902 0)
(-0.0764435 0.0101166 0)
(-0.0870995 0.00665871 0)
(-0.0881411 0.00177248 0)
(-0.0786385 -0.00333965 0)
(-0.0593015 -0.00790479 0)
(-0.03375 -0.0104724 0)
(-0.00629807 -0.00953578 0)
(0.015287 -0.00481987 0)
(0.0231568 0.00252147 0)
(0.015524 0.00616679 0)
(0.00419346 0.00454002 0)
(0.00148183 -0.00455942 0)
(0.00252355 -0.00350739 0)
(-0.0011938 0.000776707 0)
(-0.0117463 0.00628538 0)
(-0.0309048 0.0134638 0)
(-0.0591649 0.0226065 0)
(-0.0933222 0.0314514 0)
(-0.126844 0.0355691 0)
(-0.153834 0.0325089 0)
(-0.170928 0.0230485 0)
(-0.176618 0.00937109 0)
(-0.170828 -0.00622425 0)
(-0.154123 -0.0219954 0)
(-0.127148 -0.035516 0)
(-0.0921262 -0.0431859 0)
(-0.0517644 -0.0408045 0)
(-0.0118825 -0.0260317 0)
(0.0158159 -0.00181082 0)
(0.0171478 0.0154037 0)
(0.00540213 0.01428 0)
(-0.000430013 -0.00488416 0)
(-0.00566718 0.0014979 0)
(-0.0194762 0.01403 0)
(-0.043242 0.0298884 0)
(-0.077356 0.0471387 0)
(-0.117509 0.0615259 0)
(-0.156471 0.0679417 0)
(-0.188762 0.0641137 0)
(-0.212122 0.0511659 0)
(-0.225874 0.0314343 0)
(-0.229956 0.00719462 0)
(-0.22494 -0.0195435 0)
(-0.211127 -0.0466587 0)
(-0.188035 -0.0706239 0)
(-0.155387 -0.0863978 0)
(-0.113186 -0.0870578 0)
(-0.0632747 -0.0658884 0)
(-0.0138701 -0.0230727 0)
(0.00914189 0.0167536 0)
(0.00414291 0.0227706 0)
(-0.00340514 0.00136509 0)
(-0.0169739 0.0173818 0)
(-0.0419101 0.0399516 0)
(-0.0764143 0.0651375 0)
(-0.117897 0.0872719 0)
(-0.1595 0.100005 0)
(-0.194912 0.0997911 0)
(-0.221949 0.0875791 0)
(-0.24075 0.0663259 0)
(-0.251853 0.0386674 0)
(-0.256037 0.00646536 0)
(-0.25407 -0.0289619 0)
(-0.2459 -0.0654746 0)
(-0.230484 -0.100162 0)
(-0.205861 -0.127676 0)
(-0.169374 -0.139346 0)
(-0.118612 -0.1232 0)
(-0.0556098 -0.0700601 0)
(-0.00113052 0.00250085 0)
(0.00471648 0.0273055 0)
(-0.00636458 0.0151286 0)
(-0.0274117 0.0430392 0)
(-0.0604215 0.0739426 0)
(-0.0998424 0.104305 0)
(-0.141241 0.126197 0)
(-0.177815 0.133742 0)
(-0.205908 0.12612 0)
(-0.225659 0.10656 0)
(-0.238278 0.0788145 0)
(-0.245405 0.0456371 0)
(-0.248713 0.0085741 0)
(-0.249157 -0.0315998 0)
(-0.246559 -0.0737849 0)
(-0.240276 -0.116659 0)
(-0.227561 -0.156345 0)
(-0.203818 -0.184494 0)
(-0.163146 -0.185978 0)
(-0.101048 -0.140309 0)
(-0.0217658 -0.0388899 0)
(0.00715903 0.0261528 0)
(-0.00805696 0.0341666 0)
(-0.0333854 0.0740814 0)
(-0.0695932 0.110277 0)
(-0.108231 0.141858 0)
(-0.14454 0.16027 0)
(-0.173098 0.161166 0)
(-0.192597 0.146234 0)
(-0.204392 0.120262 0)
(-0.210394 0.0875522 0)
(-0.213037 0.0510898 0)
(-0.214365 0.0123605 0)
(-0.215451 -0.0282589 0)
(-0.216528 -0.0712522 0)
(-0.217607 -0.117062 0)
(-0.216491 -0.164511 0)
(-0.208051 -0.208137 0)
(-0.184257 -0.233786 0)
(-0.136676 -0.214434 0)
(-0.0611031 -0.116709 0)
(0.00553293 0.0136069 0)
(-0.00781805 0.0550975 0)
(-0.0334646 0.105989 0)
(-0.0683356 0.144541 0)
(-0.102361 0.174439 0)
(-0.131412 0.187633 0)
(-0.151719 0.18148 0)
(-0.16362 0.159701 0)
(-0.169094 0.128225 0)
(-0.170495 0.0918353 0)
(-0.170366 0.0536021 0)
(-0.170359 0.0148079 0)
(-0.171235 -0.0245377 0)
(-0.173565 -0.065637 0)
(-0.17788 -0.109934 0)
(-0.183464 -0.158626 0)
(-0.186564 -0.210545 0)
(-0.179195 -0.256554 0)
(-0.151407 -0.270369 0)
(-0.0970129 -0.202146 0)
(-0.00861704 -0.0147307 0)
(-0.00577006 0.0745463 0)
(-0.0281774 0.135241 0)
(-0.0584168 0.174244 0)
(-0.0859738 0.200903 0)
(-0.107622 0.208319 0)
(-0.121101 0.19542 0)
(-0.127684 0.167604 0)
(-0.129597 0.131705 0)
(-0.129283 0.0928044 0)
(-0.128807 0.0537414 0)
(-0.12899 0.0153095 0)
(-0.130055 -0.0229082 0)
(-0.132481 -0.0620539 0)
(-0.13701 -0.103552 0)
(-0.144234 -0.149567 0)
(-0.152723 -0.202541 0)
(-0.156287 -0.26031 0)
(-0.144506 -0.302911 0)
(-0.110284 -0.272575 0)
(-0.0300464 -0.0736571 0)
(-0.00255487 0.0896238 0)
(-0.0192773 0.159249 0)
(-0.0429186 0.197828 0)
(-0.0634553 0.220652 0)
(-0.0784877 0.222677 0)
(-0.0869016 0.204209 0)
(-0.0903495 0.171831 0)
(-0.0909402 0.132961 0)
(-0.0908068 0.0927732 0)
(-0.091255 0.05368 0)
(-0.0924023 0.0158373 0)
(-0.0941368 -0.0216181 0)
(-0.0966378 -0.0596001 0)
(-0.100472 -0.0989635 0)
(-0.106851 -0.141572 0)
(-0.11651 -0.191633 0)
(-0.126068 -0.25354 0)
(-0.12494 -0.317857 0)
(-0.10606 -0.329345 0)
(-0.0366622 -0.159491 0)
(0.00115108 0.0981887 0)
(-0.00841406 0.176309 0)
(-0.0243704 0.21481 0)
(-0.0379403 0.23444 0)
(-0.0472659 0.23238 0)
(-0.0520442 0.209948 0)
(-0.053815 0.174522 0)
(-0.0542387 0.133938 0)
(-0.0548881 0.0933417 0)
(-0.0564123 0.0546274 0)
(-0.0585838 0.017358 0)
(-0.0611986 -0.0196355 0)
(-0.0642376 -0.0571129 0)
(-0.0679423 -0.0953948 0)
(-0.0733503 -0.135392 0)
(-0.082167 -0.181161 0)
(-0.0943644 -0.241336 0)
(-0.0997768 -0.31843 0)
(-0.0943815 -0.366729 0)
(-0.0306608 -0.237931 0)
(0.00477453 0.0992315 0)
(0.00280857 0.185448 0)
(-0.00515156 0.224933 0)
(-0.0120453 0.24221 0)
(-0.0163502 0.237359 0)
(-0.0181564 0.212693 0)
(-0.0187015 0.175943 0)
(-0.0190567 0.134968 0)
(-0.0202028 0.0946862 0)
(-0.0223642 0.0565982 0)
(-0.0252071 0.0199599 0)
(-0.0285999 -0.0164993 0)
(-0.0325368 -0.0535511 0)
(-0.037021 -0.0913005 0)
(-0.0426771 -0.129799 0)
(-0.0509428 -0.171868 0)
(-0.0647104 -0.227889 0)
(-0.0739775 -0.311756 0)
(-0.0808821 -0.391018 0)
(-0.0228692 -0.302085 0)
(0.00781511 0.0931284 0)
(0.013362 0.186368 0)
(0.0132816 0.228343 0)
(0.0128835 0.244885 0)
(0.0134873 0.239002 0)
(0.014712 0.213813 0)
(0.0156345 0.177079 0)
(0.0157424 0.136501 0)
(0.0146229 0.0967749 0)
(0.012322 0.0593106 0)
(0.00916397 0.0233787 0)
(0.00516759 -0.0122775 0)
(0.000203507 -0.0485254 0)
(-0.00565172 -0.0854983 0)
(-0.0128081 -0.122842 0)
(-0.0216468 -0.161882 0)
(-0.0374919 -0.212497 0)
(-0.0491816 -0.297947 0)
(-0.0680651 -0.402966 0)
(-0.0145664 -0.354999 0)
(0.0094471 0.0810375 0)
(0.0218777 0.179141 0)
(0.0292487 0.224603 0)
(0.034961 0.241474 0)
(0.040477 0.235756 0)
(0.0453714 0.211474 0)
(0.0487792 0.176076 0)
(0.0504004 0.136869 0)
(0.0501836 0.0983357 0)
(0.048364 0.061935 0)
(0.0452483 0.0271314 0)
(0.0407873 -0.00725472 0)
(0.0347944 -0.0421178 0)
(0.0273081 -0.0777057 0)
(0.0176224 -0.1136 0)
(0.00666006 -0.150195 0)
(-0.012496 -0.195996 0)
(-0.0253318 -0.279778 0)
(-0.0563805 -0.40565 0)
(-0.00635411 -0.397148 0)
(0.00896073 0.0651011 0)
(0.0269596 0.164215 0)
(0.0416225 0.21402 0)
(0.0536898 0.232925 0)
(0.0646511 0.228927 0)
(0.0741369 0.206971 0)
(0.0812189 0.17405 0)
(0.0855342 0.136952 0)
(0.0871559 0.100027 0)
(0.086425 0.0649373 0)
(0.0836884 0.03153 0)
(0.0788602 -0.00120692 0)
(0.0716935 -0.0339835 0)
(0.0623766 -0.0673576 0)
(0.0497051 -0.101051 0)
(0.0353029 -0.135014 0)
(0.0114331 -0.176064 0)
(-0.00160033 -0.256705 0)
(-0.0456656 -0.401758 0)
(0.00243233 -0.432116 0)
(0.00626326 0.0487205 0)
(0.0270595 0.143835 0)
(0.0477257 0.196255 0)
(0.0658603 0.216657 0)
(0.0827955 0.214517 0)
(0.0981085 0.195656 0)
(0.110496 0.166428 0)
(0.119221 0.132809 0)
(0.124188 0.09883 0)
(0.12569 0.0662618 0)
(0.124016 0.0353459 0)
(0.119292 0.00530959 0)
(0.110966 -0.0243184 0)
(0.0996695 -0.054299 0)
(0.0832956 -0.0846324 0)
(0.0647676 -0.115934 0)
(0.0355483 -0.153232 0)
(0.0218499 -0.230989 0)
(-0.035548 -0.394538 0)
(0.0129826 -0.461131 0)
(0.0021275 0.0351462 0)
(0.0215962 0.12051 0)
(0.0473214 0.173911 0)
(0.0719156 0.195984 0)
(0.0957179 0.196031 0)
(0.117931 0.180665 0)
(0.136875 0.15583 0)
(0.1513 0.1266 0)
(0.16077 0.0965525 0)
(0.165508 0.0674318 0)
(0.165502 0.0398268 0)
(0.161454 0.013338 0)
(0.152029 -0.0124055 0)
(0.138799 -0.0380635 0)
(0.118332 -0.0639494 0)
(0.0956022 -0.0916329 0)
(0.0608168 -0.126111 0)
(0.0447268 -0.2023 0)
(-0.0240863 -0.383894 0)
(0.0278295 -0.483282 0)
(-0.00326416 0.030026 0)
(0.00856858 0.0998918 0)
(0.0337628 0.144141 0)
(0.0641831 0.163713 0)
(0.0958849 0.165013 0)
(0.1266 0.153503 0)
(0.153794 0.134107 0)
(0.175721 0.110788 0)
(0.191355 0.0865461 0)
(0.200992 0.0629073 0)
(0.20391 0.040641 0)
(0.201722 0.019593 0)
(0.191951 -0.000518183 0)
(0.177884 -0.0202706 0)
(0.154029 -0.040079 0)
(0.128438 -0.0630899 0)
(0.0883514 -0.0964826 0)
(0.0674531 -0.175717 0)
(-0.00578424 -0.367968 0)
(0.0514559 -0.49039 0)
(-0.0130015 0.0199421 0)
(-0.00756042 0.0881585 0)
(0.0169107 0.121814 0)
(0.0522529 0.133554 0)
(0.0916514 0.132768 0)
(0.1305 0.123902 0)
(0.165531 0.109902 0)
(0.194415 0.092897 0)
(0.215724 0.0752347 0)
(0.230384 0.057859 0)
(0.23643 0.041783 0)
(0.23745 0.0268035 0)
(0.228756 0.0132168 0)
(0.217526 1.42032e-05 0)
(0.19374 -0.0133703 0)
(0.171166 -0.031892 0)
(0.128555 -0.0644028 0)
(0.10507 -0.143792 0)
(0.0361578 -0.325689 0)
(0.0918606 -0.455579 0)
(-0.10537 0.0834169 0)
(-0.0773657 0.0695936 0)
(-0.0491962 0.072282 0)
(0.00154639 0.0758832 0)
(0.0532666 0.0758396 0)
(0.104308 0.0716448 0)
(0.15009 0.0646546 0)
(0.191297 0.0556964 0)
(0.222738 0.0465337 0)
(0.250423 0.0373551 0)
(0.266188 0.0291901 0)
(0.281499 0.0216153 0)
(0.282508 0.0152846 0)
(0.28732 0.00919972 0)
(0.27234 0.00259305 0)
(0.266328 -0.00849177 0)
(0.22836 -0.0341099 0)
(0.216097 -0.0946526 0)
(0.149647 -0.229645 0)
(0.170564 -0.34151 0)
(0.13037 0.104094 0)
(0.159185 0.07606 0)
(0.213474 0.0540951 0)
(0.271789 0.0422528 0)
(0.323658 0.036274 0)
(0.375042 0.0321078 0)
(0.418581 0.0289815 0)
(0.462912 0.0256163 0)
(0.495314 0.0229695 0)
(0.53009 0.0198181 0)
(0.549378 0.017722 0)
(0.575252 0.0148329 0)
(0.581721 0.0134579 0)
(0.600556 0.0106824 0)
(0.592692 0.00977115 0)
(0.601971 0.00536026 0)
(0.567003 0.000419657 0)
(0.547711 -0.0180738 0)
(0.436358 -0.0503332 0)
(0.337131 -0.1014 0)
)
;

boundaryField
{
    movingWall
    {
        type            fixedValue;
        value           uniform (1 0 0);
    }
    fixedWalls
    {
        type            noSlip;
    }
    frontAndBack
    {
        type            empty;
    }
}


// ************************************************************************* //
