/*--------------------------------*- C++ -*----------------------------------*\
| =========                 |                                                 |
| \\      /  F ield         | OpenFOAM: The Open Source CFD Toolbox           |
|  \\    /   O peration     | Version:  2212                                  |
|   \\  /    A nd           | Website:  www.openfoam.com                      |
|    \\/     M anipulation  |                                                 |
\*---------------------------------------------------------------------------*/
FoamFile
{
    version     2.0;
    format      ascii;
    arch        "LSB;label=32;scalar=64";
    class       volVectorField;
    location    "4.63";
    object      U;
}
// * * * * * * * * * * * * * * * * * * * * * * * * * * * * * * * * * * * * * //

dimensions      [0 1 -1 0 0 0 0];

internalField   nonuniform List<vector> 
400
(
(0.00166926 -0.00167282 0)
(0.0047979 -0.00187855 0)
(0.00652721 -0.00119295 0)
(0.00560414 -0.000569837 0)
(0.00150882 0.000188754 0)
(-0.00686264 0.00173825 0)
(-0.0205809 0.00476443 0)
(-0.0394252 0.0086878 0)
(-0.0606063 0.0112387 0)
(-0.0788863 0.0104812 0)
(-0.0895725 0.00677367 0)
(-0.0902811 0.00169192 0)
(-0.0801419 -0.00357586 0)
(-0.0600199 -0.00822883 0)
(-0.0336509 -0.0108081 0)
(-0.00549351 -0.00977688 0)
(0.016505 -0.00479871 0)
(0.0243005 0.00273728 0)
(0.0161038 0.00643447 0)
(0.00430422 0.00469814 0)
(0.00169711 -0.00501718 0)
(0.00309799 -0.00398099 0)
(-0.000501259 0.000609421 0)
(-0.0113881 0.0064324 0)
(-0.0314019 0.0140008 0)
(-0.0609852 0.0236661 0)
(-0.0965223 0.032903 0)
(-0.131011 0.0369353 0)
(-0.158458 0.0334115 0)
(-0.175579 0.0233693 0)
(-0.180965 0.00915068 0)
(-0.174664 -0.00688853 0)
(-0.157251 -0.0230271 0)
(-0.129461 -0.0367521 0)
(-0.09355 -0.0444239 0)
(-0.0522517 -0.0417575 0)
(-0.0115402 -0.0263527 0)
(0.0167197 -0.00138111 0)
(0.0177752 0.0161131 0)
(0.00552524 0.0147567 0)
(-0.000261685 -0.00569012 0)
(-0.00542222 0.000879547 0)
(-0.0196223 0.0142895 0)
(-0.0444169 0.0311224 0)
(-0.080083 0.0492276 0)
(-0.121755 0.0640323 0)
(-0.161743 0.0702545 0)
(-0.194556 0.0657955 0)
(-0.218084 0.0520537 0)
(-0.231733 0.0315102 0)
(-0.235512 0.00650837 0)
(-0.230082 -0.0209169 0)
(-0.215753 -0.0485973 0)
(-0.192021 -0.0729165 0)
(-0.158618 -0.0887392 0)
(-0.115508 -0.0890305 0)
(-0.064492 -0.066978 0)
(-0.0138956 -0.0227981 0)
(0.00942187 0.0177425 0)
(0.00415345 0.0234776 0)
(-0.00347117 0.000557362 0)
(-0.0174809 0.0172794 0)
(-0.0433883 0.0413746 0)
(-0.0793856 0.0679046 0)
(-0.122454 0.0907548 0)
(-0.165161 0.103407 0)
(-0.201093 0.102507 0)
(-0.228313 0.0893713 0)
(-0.247084 0.0671527 0)
(-0.258009 0.0385535 0)
(-0.261926 0.00544799 0)
(-0.25964 -0.0308345 0)
(-0.251085 -0.0680537 0)
(-0.235215 -0.103272 0)
(-0.210038 -0.131019 0)
(-0.172851 -0.1425 0)
(-0.121099 -0.125544 0)
(-0.0567585 -0.0708711 0)
(-0.00103376 0.00337188 0)
(0.00474024 0.0281121 0)
(-0.00663797 0.0148429 0)
(-0.0286123 0.0440374 0)
(-0.063015 0.0767993 0)
(-0.103982 0.10844 0)
(-0.146598 0.130634 0)
(-0.183738 0.137626 0)
(-0.211956 0.129009 0)
(-0.231641 0.10837 0)
(-0.244086 0.0795709 0)
(-0.251018 0.0453981 0)
(-0.254129 0.00738625 0)
(-0.254347 -0.0336602 0)
(-0.251448 -0.076588 0)
(-0.244873 -0.120084 0)
(-0.231811 -0.160185 0)
(-0.207638 -0.188441 0)
(-0.166315 -0.189529 0)
(-0.103167 -0.142666 0)
(-0.0221782 -0.0389692 0)
(0.00734758 0.0269495 0)
(-0.00846506 0.0348303 0)
(-0.0349941 0.0764085 0)
(-0.0727167 0.114474 0)
(-0.112681 0.147043 0)
(-0.149764 0.16531 0)
(-0.178494 0.16528 0)
(-0.197907 0.149162 0)
(-0.209548 0.122034 0)
(-0.215403 0.0882425 0)
(-0.21796 0.0507744 0)
(-0.219197 0.0110944 0)
(-0.220124 -0.0303841 0)
(-0.220943 -0.0741442 0)
(-0.221743 -0.120576 0)
(-0.220322 -0.168464 0)
(-0.211575 -0.21232 0)
(-0.187413 -0.237942 0)
(-0.139252 -0.218067 0)
(-0.0626478 -0.118765 0)
(0.00578855 0.0140907 0)
(-0.0082377 0.0568316 0)
(-0.0351281 0.10961 0)
(-0.0714224 0.149843 0)
(-0.106473 0.180369 0)
(-0.135956 0.193022 0)
(-0.156246 0.185677 0)
(-0.168039 0.162611 0)
(-0.173449 0.12996 0)
(-0.174888 0.0924985 0)
(-0.174873 0.0532453 0)
(-0.174926 0.0134387 0)
(-0.175737 -0.0268819 0)
(-0.177858 -0.0688762 0)
(-0.18182 -0.113845 0)
(-0.186961 -0.162913 0)
(-0.189625 -0.214927 0)
(-0.1819 -0.260883 0)
(-0.153793 -0.27453 0)
(-0.0990458 -0.20547 0)
(-0.00889223 -0.0146942 0)
(-0.00608643 0.0772899 0)
(-0.0295902 0.139995 0)
(-0.0610394 0.180421 0)
(-0.0893473 0.207386 0)
(-0.11123 0.213952 0)
(-0.124658 0.199681 0)
(-0.131221 0.170539 0)
(-0.133222 0.133503 0)
(-0.133123 0.0935771 0)
(-0.132886 0.0534846 0)
(-0.133214 0.0139484 0)
(-0.134298 -0.0254138 0)
(-0.136602 -0.0656476 0)
(-0.140818 -0.108007 0)
(-0.147545 -0.154496 0)
(-0.155443 -0.207479 0)
(-0.158497 -0.26497 0)
(-0.146323 -0.307356 0)
(-0.111917 -0.276588 0)
(-0.030835 -0.0751712 0)
(-0.00269902 0.0931849 0)
(-0.0202603 0.164937 0)
(-0.0448406 0.204677 0)
(-0.0659051 0.227533 0)
(-0.0810709 0.228481 0)
(-0.0894656 0.208546 0)
(-0.0929757 0.174868 0)
(-0.0937398 0.13494 0)
(-0.0938644 0.0937836 0)
(-0.0945348 0.053645 0)
(-0.0958092 0.0146169 0)
(-0.0975974 -0.0240991 0)
(-0.100076 -0.0633085 0)
(-0.103754 -0.103738 0)
(-0.109778 -0.147053 0)
(-0.118869 -0.197227 0)
(-0.127836 -0.258681 0)
(-0.126188 -0.322562 0)
(-0.107214 -0.333973 0)
(-0.0372264 -0.162898 0)
(0.0012223 0.102242 0)
(-0.00885441 0.18266 0)
(-0.0254454 0.222127 0)
(-0.0393514 0.241619 0)
(-0.0487567 0.23837 0)
(-0.0535557 0.214438 0)
(-0.0554275 0.177739 0)
(-0.0560242 0.136139 0)
(-0.056872 0.0945803 0)
(-0.058527 0.0547783 0)
(-0.060765 0.0162682 0)
(-0.0634393 -0.0220252 0)
(-0.0665462 -0.0607795 0)
(-0.0702737 -0.100262 0)
(-0.0755641 -0.141222 0)
(-0.0839985 -0.187365 0)
(-0.0956558 -0.247047 0)
(-0.100434 -0.323331 0)
(-0.0950082 -0.371381 0)
(-0.0308631 -0.241882 0)
(0.00508626 0.103374 0)
(0.00296003 0.192185 0)
(-0.00532674 0.232552 0)
(-0.0123911 0.249586 0)
(-0.0167404 0.243485 0)
(-0.0185858 0.217302 0)
(-0.0192188 0.179288 0)
(-0.019684 0.137305 0)
(-0.0209281 0.0960487 0)
(-0.0231273 0.0568526 0)
(-0.0259895 0.018976 0)
(-0.0294471 -0.0187506 0)
(-0.0335176 -0.0570464 0)
(-0.038154 -0.096023 0)
(-0.0439138 -0.135663 0)
(-0.052057 -0.178449 0)
(-0.0654922 -0.234164 0)
(-0.0741285 -0.317003 0)
(-0.0811242 -0.395831 0)
(-0.0229174 -0.306352 0)
(0.00838485 0.0969312 0)
(0.0141263 0.193153 0)
(0.0140163 0.236047 0)
(0.0136283 0.252339 0)
(0.0142526 0.245237 0)
(0.0154512 0.218558 0)
(0.0163162 0.180556 0)
(0.0163755 0.138936 0)
(0.0152329 0.098198 0)
(0.0129424 0.0596117 0)
(0.00977223 0.022469 0)
(0.00568726 -0.0143973 0)
(0.000543221 -0.0518281 0)
(-0.00552911 -0.089978 0)
(-0.0129382 -0.128521 0)
(-0.0218743 -0.16854 0)
(-0.0376393 -0.219103 0)
(-0.0487816 -0.303319 0)
(-0.0679233 -0.4076 0)
(-0.0144691 -0.359228 0)
(0.0102215 0.084055 0)
(0.0232276 0.185596 0)
(0.0308453 0.23219 0)
(0.0367365 0.248898 0)
(0.0423594 0.242031 0)
(0.0472747 0.216277 0)
(0.0506696 0.179573 0)
(0.0522969 0.139272 0)
(0.0521092 0.099708 0)
(0.0503241 0.0622179 0)
(0.0471842 0.026276 0)
(0.042595 -0.0092237 0)
(0.0363816 -0.0452124 0)
(0.0286497 -0.0819123 0)
(0.0186174 -0.118986 0)
(0.00738875 -0.156717 0)
(-0.0119503 -0.202784 0)
(-0.0244319 -0.2853 0)
(-0.0559421 -0.410147 0)
(-0.00617055 -0.401133 0)
(0.009762 0.0669689 0)
(0.0287636 0.169898 0)
(0.0439883 0.221176 0)
(0.0564458 0.240128 0)
(0.0676582 0.235161 0)
(0.0772647 0.211829 0)
(0.0844016 0.177604 0)
(0.0887655 0.139377 0)
(0.0904366 0.101408 0)
(0.0897288 0.0652638 0)
(0.0869801 0.0307909 0)
(0.081951 -0.00304245 0)
(0.0745045 -0.0368493 0)
(0.0649139 -0.0712386 0)
(0.0518272 -0.106034 0)
(0.0370541 -0.141157 0)
(0.0127782 -0.182688 0)
(-0.000234402 -0.262112 0)
(-0.0449606 -0.405928 0)
(0.00271046 -0.435622 0)
(0.00684429 0.0493204 0)
(0.0290661 0.148355 0)
(0.0506551 0.202715 0)
(0.0694048 0.223467 0)
(0.0867621 0.220561 0)
(0.10234 0.200433 0)
(0.114891 0.169916 0)
(0.123734 0.135148 0)
(0.128785 0.100134 0)
(0.130307 0.0665672 0)
(0.128577 0.0346831 0)
(0.123655 0.0036521 0)
(0.115071 -0.0268779 0)
(0.103451 -0.0577758 0)
(0.0865567 -0.0891088 0)
(0.0675684 -0.121513 0)
(0.0377409 -0.159433 0)
(0.0234828 -0.23612 0)
(-0.0346445 -0.398284 0)
(0.0133919 -0.46394 0)
(0.00235387 0.0347045 0)
(0.0233811 0.123516 0)
(0.0504794 0.179216 0)
(0.076031 0.202022 0)
(0.100533 0.201642 0)
(0.123258 0.185258 0)
(0.142557 0.159273 0)
(0.157217 0.128959 0)
(0.166824 0.0979315 0)
(0.171603 0.0678877 0)
(0.171509 0.0394129 0)
(0.167266 0.012085 0)
(0.157491 -0.0144609 0)
(0.143874 -0.0409746 0)
(0.122783 -0.06777 0)
(0.0994725 -0.0963976 0)
(0.0638971 -0.131527 0)
(0.0465962 -0.20663 0)
(-0.0229462 -0.386623 0)
(0.0284149 -0.485244 0)
(-0.00340533 0.0288069 0)
(0.00988786 0.101352 0)
(0.0366851 0.148174 0)
(0.0683378 0.168734 0)
(0.101032 0.169874 0)
(0.132559 0.157591 0)
(0.16037 0.137219 0)
(0.182738 0.112923 0)
(0.198634 0.0877813 0)
(0.208427 0.0633213 0)
(0.211281 0.0402857 0)
(0.20899 0.0185357 0)
(0.198795 -0.00229998 0)
(0.18428 -0.0227226 0)
(0.159683 -0.0432149 0)
(0.133322 -0.0668699 0)
(0.0921195 -0.1008 0)
(0.0694738 -0.17935 0)
(-0.00459381 -0.369766 0)
(0.0520489 -0.491488 0)
(-0.013883 0.0187057 0)
(-0.00750142 0.0882105 0)
(0.0189627 0.123943 0)
(0.0559447 0.136869 0)
(0.0968412 0.136359 0)
(0.136974 0.127155 0)
(0.172995 0.112532 0)
(0.202624 0.0948264 0)
(0.22435 0.0764611 0)
(0.239297 0.058441 0)
(0.245269 0.0417258 0)
(0.246158 0.0261887 0)
(0.236909 0.011998 0)
(0.225203 -0.00166393 0)
(0.200442 -0.0155846 0)
(0.176755 -0.0344684 0)
(0.132748 -0.0672459 0)
(0.107428 -0.14568 0)
(0.037287 -0.326081 0)
(0.0922927 -0.455856 0)
(-0.105929 0.0825507 0)
(-0.077681 0.0691003 0)
(-0.0485963 0.0732786 0)
(0.00355794 0.0776727 0)
(0.0568359 0.0779337 0)
(0.109324 0.0736459 0)
(0.156265 0.0663278 0)
(0.198411 0.0569652 0)
(0.230366 0.0473565 0)
(0.25839 0.0377752 0)
(0.274074 0.0291985 0)
(0.28922 0.0212941 0)
(0.28966 0.0146207 0)
(0.293892 0.00829571 0)
(0.277824 0.0013862 0)
(0.270844 -0.00975365 0)
(0.231775 -0.0353411 0)
(0.217895 -0.0953192 0)
(0.150164 -0.229722 0)
(0.170664 -0.34148 0)
(0.130019 0.103779 0)
(0.158427 0.0753248 0)
(0.212337 0.0533373 0)
(0.270838 0.041709 0)
(0.323338 0.0359681 0)
(0.37565 0.0319762 0)
(0.420101 0.0289286 0)
(0.46527 0.0255863 0)
(0.498245 0.0229115 0)
(0.533402 0.0197256 0)
(0.552795 0.0175744 0)
(0.578602 0.0146468 0)
(0.584784 0.0132151 0)
(0.603209 0.0104054 0)
(0.594751 0.00945064 0)
(0.603392 0.00505995 0)
(0.567723 0.000138052 0)
(0.547686 -0.0182867 0)
(0.435832 -0.0504135 0)
(0.336822 -0.101399 0)
)
;

boundaryField
{
    movingWall
    {
        type            fixedValue;
        value           uniform (1 0 0);
    }
    fixedWalls
    {
        type            noSlip;
    }
    frontAndBack
    {
        type            empty;
    }
}


// ************************************************************************* //
