/*--------------------------------*- C++ -*----------------------------------*\
| =========                 |                                                 |
| \\      /  F ield         | OpenFOAM: The Open Source CFD Toolbox           |
|  \\    /   O peration     | Version:  2212                                  |
|   \\  /    A nd           | Website:  www.openfoam.com                      |
|    \\/     M anipulation  |                                                 |
\*---------------------------------------------------------------------------*/
FoamFile
{
    version     2.0;
    format      ascii;
    arch        "LSB;label=32;scalar=64";
    class       volScalarField;
    location    "1.225";
    object      p;
}
// * * * * * * * * * * * * * * * * * * * * * * * * * * * * * * * * * * * * * //

dimensions      [0 2 -2 0 0 0 0];

internalField   nonuniform List<scalar> 
400
(
-1.71342e-10
-0.000106498
-0.000243488
-0.000422449
-0.000636381
-0.00085531
-0.00102392
-0.00106159
-0.000870011
-0.000357168
0.00052343
0.00173921
0.00315984
0.00440276
0.00510217
0.00508071
0.00436259
0.00353497
0.00295752
0.00284204
0.000118766
8.18971e-06
-0.000103544
-0.000253548
-0.000441577
-0.00064427
-0.000825323
-0.000929241
-0.000868208
-0.00052853
0.000185006
0.00128951
0.00262602
0.00386574
0.0046169
0.00464981
0.0040535
0.00322673
0.00273153
0.00267235
0.000234529
9.28888e-05
-2.03068e-05
-0.000186692
-0.000427478
-0.000740732
-0.00111427
-0.00150206
-0.00179085
-0.00179723
-0.00133023
-0.00032204
0.00105877
0.00249826
0.0035722
0.00393486
0.00356696
0.00284644
0.00218739
0.00206849
0.00024076
6.70818e-05
-6.99427e-05
-0.000300589
-0.000679829
-0.00124932
-0.0020424
-0.00302912
-0.00405262
-0.00480841
-0.00493587
-0.00425975
-0.00292628
-0.0011618
0.000627408
0.00194747
0.00245731
0.00220387
0.00153453
0.00106991
7.25006e-06
-0.000199008
-0.000389521
-0.000744459
-0.00136979
-0.00238639
-0.00390849
-0.00591754
-0.00814279
-0.0100588
-0.0111052
-0.011012
-0.00987664
-0.00782694
-0.00517819
-0.00244131
-0.000241608
0.000880487
0.000830173
-0.000431275
-0.00057031
-0.000814015
-0.00109643
-0.00164784
-0.00264705
-0.00432877
-0.00689237
-0.0102621
-0.0139473
-0.017171
-0.0192582
-0.019887
-0.0190128
-0.016786
-0.0134432
-0.0093435
-0.00511246
-0.00180104
-0.000582519
-0.00238918
-0.0015406
-0.00182875
-0.00224358
-0.00306009
-0.00453841
-0.00702817
-0.0107664
-0.0155305
-0.0205286
-0.0247514
-0.0275227
-0.0285757
-0.0278626
-0.0256239
-0.0220773
-0.017338
-0.0116654
-0.0061483
-0.00313202
-0.00406103
-0.00287615
-0.00321084
-0.00378377
-0.0048978
-0.00687611
-0.0101434
-0.0149081
-0.020775
-0.0266794
-0.0314535
-0.034469
-0.0355746
-0.0348658
-0.0326379
-0.0291717
-0.0244972
-0.0184822
-0.011647
-0.00639041
-0.00447511
-0.00446939
-0.00483982
-0.00556503
-0.00694947
-0.00934028
-0.0131867
-0.0186411
-0.0251928
-0.0316134
-0.0366605
-0.0397489
-0.0407999
-0.0399987
-0.0376831
-0.0342561
-0.0298767
-0.0242603
-0.0172234
-0.0102051
-0.0055202
-0.00616135
-0.00653702
-0.00737262
-0.00894211
-0.0115742
-0.0157097
-0.0214616
-0.0283014
-0.0349532
-0.0401502
-0.0433076
-0.0443381
-0.0434257
-0.0409346
-0.0374085
-0.0332451
-0.028281
-0.0218789
-0.014566
-0.00823029
-0.00779004
-0.00812288
-0.00899838
-0.010626
-0.0132889
-0.0174072
-0.0230853
-0.0298578
-0.0364956
-0.0417484
-0.044981
-0.046053
-0.04504
-0.0423684
-0.0386718
-0.0346242
-0.0303124
-0.0249018
-0.0183959
-0.0116686
-0.00921247
-0.0094676
-0.0102882
-0.0118225
-0.0143101
-0.0181354
-0.0234202
-0.0297734
-0.0361228
-0.0412904
-0.0445534
-0.0456632
-0.0446477
-0.0419034
-0.0380684
-0.0341346
-0.0304304
-0.0260066
-0.0205897
-0.0140496
-0.0103654
-0.0105063
-0.0111648
-0.0124577
-0.0145958
-0.0178947
-0.0225055
-0.0281397
-0.0339373
-0.0388286
-0.0420263
-0.043169
-0.0422479
-0.0395889
-0.0359064
-0.0321032
-0.028918
-0.0252388
-0.0207802
-0.0144165
-0.0112375
-0.0112425
-0.0116359
-0.0125467
-0.0141876
-0.0168168
-0.0205875
-0.0253233
-0.0303749
-0.034816
-0.0378521
-0.0390417
-0.0383196
-0.035944
-0.0325812
-0.0290754
-0.0262041
-0.0230017
-0.0194327
-0.0127579
-0.011863
-0.0117259
-0.0117657
-0.0121869
-0.0132535
-0.0151904
-0.0181253
-0.0219541
-0.0262032
-0.0301101
-0.0329305
-0.034176
-0.0337227
-0.0317381
-0.028793
-0.0256299
-0.0229919
-0.0199925
-0.0176407
-0.00938214
-0.0123279
-0.012038
-0.0115824
-0.0114266
-0.0119224
-0.0132612
-0.0155216
-0.0186151
-0.0221844
-0.0256169
-0.0282469
-0.0295631
-0.0293915
-0.0278307
-0.0252993
-0.0224192
-0.0198758
-0.0168805
-0.0157667
-0.00321419
-0.0126796
-0.0122871
-0.0112148
-0.0104465
-0.0104236
-0.011307
-0.0131136
-0.0157263
-0.0188453
-0.0219638
-0.0245042
-0.0259579
-0.0260868
-0.0248757
-0.0226628
-0.019872
-0.0170964
-0.013675
-0.0109485
0.011107
-0.0139394
-0.012602
-0.0104366
-0.00905592
-0.00868955
-0.00934592
-0.0109583
-0.0133686
-0.0163079
-0.0193242
-0.0219184
-0.0235752
-0.0240262
-0.0231266
-0.0210827
-0.0179712
-0.0141184
-0.00757699
0.00511754
0.0462897
-0.0124474
-0.0135276
-0.0102606
-0.00807192
-0.00733237
-0.00785005
-0.00941364
-0.0117926
-0.0147466
-0.0178191
-0.0205811
-0.0224759
-0.0232484
-0.022562
-0.0204197
-0.0160792
-0.00820277
0.00871086
0.0448309
0.115457
-0.0299755
-0.0135288
-0.00679409
-0.00482559
-0.00465437
-0.00549225
-0.00726691
-0.00982129
-0.01294
-0.0161606
-0.019088
-0.0211972
-0.0222271
-0.0216834
-0.0189518
-0.0118684
0.00394361
0.0391888
0.107695
0.211976
)
;

boundaryField
{
    movingWall
    {
        type            zeroGradient;
    }
    fixedWalls
    {
        type            zeroGradient;
    }
    frontAndBack
    {
        type            empty;
    }
}


// ************************************************************************* //
