/*--------------------------------*- C++ -*----------------------------------*\
| =========                 |                                                 |
| \\      /  F ield         | OpenFOAM: The Open Source CFD Toolbox           |
|  \\    /   O peration     | Version:  2212                                  |
|   \\  /    A nd           | Website:  www.openfoam.com                      |
|    \\/     M anipulation  |                                                 |
\*---------------------------------------------------------------------------*/
FoamFile
{
    version     2.0;
    format      ascii;
    arch        "LSB;label=32;scalar=64";
    class       volVectorField;
    location    "2.47";
    object      U;
}
// * * * * * * * * * * * * * * * * * * * * * * * * * * * * * * * * * * * * * //

dimensions      [0 1 -1 0 0 0 0];

internalField   nonuniform List<vector> 
400
(
(0.00141221 -0.00145599 0)
(0.00398725 -0.00160705 0)
(0.00528825 -0.00104284 0)
(0.00428514 -0.000472352 0)
(0.000415184 0.000270164 0)
(-0.00732928 0.00169198 0)
(-0.0199125 0.00431577 0)
(-0.0371907 0.00774192 0)
(-0.0567948 0.0101523 0)
(-0.0741018 0.00972439 0)
(-0.0846306 0.00647937 0)
(-0.0858597 0.00177147 0)
(-0.0768201 -0.00318568 0)
(-0.0581353 -0.00763468 0)
(-0.0333342 -0.0101443 0)
(-0.00662632 -0.00925001 0)
(0.0144075 -0.00472509 0)
(0.0221589 0.0023802 0)
(0.0149459 0.00592334 0)
(0.00406422 0.00437459 0)
(0.00125458 -0.00408467 0)
(0.00192186 -0.00301929 0)
(-0.00191777 0.000926941 0)
(-0.0121115 0.00609974 0)
(-0.0303866 0.0128995 0)
(-0.0573643 0.0215713 0)
(-0.09026 0.0300958 0)
(-0.122964 0.0343315 0)
(-0.149603 0.0316855 0)
(-0.16668 0.0226982 0)
(-0.172597 0.00945688 0)
(-0.167195 -0.00575355 0)
(-0.15103 -0.0211679 0)
(-0.124714 -0.0344199 0)
(-0.0904507 -0.0419686 0)
(-0.0509351 -0.0397234 0)
(-0.0119035 -0.0254466 0)
(0.0151202 -0.00199353 0)
(0.0165682 0.0147906 0)
(0.00526706 0.0138004 0)
(-0.000613028 -0.0040497 0)
(-0.00593079 0.00213884 0)
(-0.0193226 0.0137225 0)
(-0.042042 0.0285921 0)
(-0.0746584 0.0450791 0)
(-0.11349 0.0592231 0)
(-0.151743 0.0659857 0)
(-0.183839 0.0627992 0)
(-0.207263 0.0505049 0)
(-0.221204 0.0313659 0)
(-0.225541 0.00767612 0)
(-0.220814 -0.0185231 0)
(-0.207336 -0.0451268 0)
(-0.184665 -0.0686698 0)
(-0.152543 -0.084218 0)
(-0.111014 -0.0850039 0)
(-0.0619992 -0.0644923 0)
(-0.0136714 -0.0229226 0)
(0.0088971 0.0159625 0)
(0.0041125 0.0220779 0)
(-0.00333448 0.00220082 0)
(-0.0164489 0.0174965 0)
(-0.0404041 0.0384789 0)
(-0.0734795 0.0623941 0)
(-0.113611 0.084064 0)
(-0.154547 0.0971745 0)
(-0.18996 0.0978012 0)
(-0.217248 0.0864216 0)
(-0.236343 0.0658627 0)
(-0.247699 0.0387922 0)
(-0.252063 0.00714633 0)
(-0.250232 -0.0276988 0)
(-0.242204 -0.0636322 0)
(-0.22697 -0.0977582 0)
(-0.202616 -0.124852 0)
(-0.166532 -0.136417 0)
(-0.116442 -0.120756 0)
(-0.0544802 -0.0689121 0)
(-0.00116316 0.00189591 0)
(0.00468252 0.026536 0)
(-0.00609006 0.0154481 0)
(-0.0262082 0.0420626 0)
(-0.0578697 0.0711244 0)
(-0.0959439 0.100445 0)
(-0.136563 0.122452 0)
(-0.173183 0.130911 0)
(-0.201748 0.124373 0)
(-0.221994 0.105673 0)
(-0.23501 0.0785608 0)
(-0.242355 0.0458715 0)
(-0.245725 0.00926504 0)
(-0.246146 -0.0304169 0)
(-0.243524 -0.0720483 0)
(-0.237209 -0.114303 0)
(-0.224529 -0.153406 0)
(-0.200926 -0.181167 0)
(-0.160615 -0.182722 0)
(-0.0992523 -0.137945 0)
(-0.0213316 -0.0385899 0)
(0.0070146 0.0254376 0)
(-0.00766381 0.0335588 0)
(-0.031828 0.0718431 0)
(-0.0666373 0.106318 0)
(-0.104268 0.137334 0)
(-0.140371 0.156443 0)
(-0.169436 0.158645 0)
(-0.189608 0.1449 0)
(-0.201956 0.119721 0)
(-0.208308 0.0875018 0)
(-0.211048 0.051362 0)
(-0.212301 0.0129421 0)
(-0.213228 -0.0272922 0)
(-0.214141 -0.0697558 0)
(-0.215081 -0.114934 0)
(-0.213899 -0.161743 0)
(-0.205476 -0.204843 0)
(-0.181825 -0.230232 0)
(-0.134612 -0.211176 0)
(-0.0598192 -0.114824 0)
(0.00535048 0.0131418 0)
(-0.00743368 0.0534795 0)
(-0.0319166 0.102586 0)
(-0.0655275 0.139752 0)
(-0.0989093 0.169611 0)
(-0.128138 0.184 0)
(-0.149136 0.179421 0)
(-0.161712 0.158844 0)
(-0.167662 0.128033 0)
(-0.16927 0.0919446 0)
(-0.169077 0.0538524 0)
(-0.168852 0.0152396 0)
(-0.169439 -0.023763 0)
(-0.171489 -0.0643006 0)
(-0.175621 -0.107902 0)
(-0.181158 -0.155904 0)
(-0.184327 -0.207282 0)
(-0.17709 -0.252962 0)
(-0.14949 -0.266754 0)
(-0.0953864 -0.199279 0)
(-0.00841631 -0.0147932 0)
(-0.00549698 0.0720108 0)
(-0.0269068 0.130868 0)
(-0.0561026 0.168875 0)
(-0.0832829 0.195958 0)
(-0.105279 0.204973 0)
(-0.11943 0.193843 0)
(-0.126585 0.167203 0)
(-0.128846 0.131814 0)
(-0.128604 0.0930035 0)
(-0.127977 0.0538849 0)
(-0.127891 0.0154955 0)
(-0.128608 -0.0224262 0)
(-0.130673 -0.0609675 0)
(-0.134944 -0.101631 0)
(-0.142101 -0.146786 0)
(-0.15072 -0.199124 0)
(-0.154506 -0.256568 0)
(-0.142954 -0.299072 0)
(-0.108894 -0.269137 0)
(-0.0294633 -0.0725193 0)
(-0.00244224 0.0863703 0)
(-0.0184078 0.154099 0)
(-0.0412327 0.192048 0)
(-0.0615399 0.215686 0)
(-0.0769203 0.219622 0)
(-0.0858791 0.203059 0)
(-0.0897592 0.171819 0)
(-0.0905874 0.133309 0)
(-0.0904591 0.0930053 0)
(-0.0907631 0.0536591 0)
(-0.0916732 0.0157156 0)
(-0.0930744 -0.0215165 0)
(-0.0951992 -0.0588849 0)
(-0.0987182 -0.0972866 0)
(-0.104965 -0.138802 0)
(-0.114746 -0.188017 0)
(-0.124596 -0.249563 0)
(-0.123796 -0.313813 0)
(-0.104986 -0.325353 0)
(-0.0361979 -0.156839 0)
(0.00107888 0.0945109 0)
(-0.00800386 0.170612 0)
(-0.0233597 0.208743 0)
(-0.0367614 0.229444 0)
(-0.0463224 0.229503 0)
(-0.051446 0.209085 0)
(-0.0534915 0.174794 0)
(-0.0540613 0.134469 0)
(-0.0546985 0.0936058 0)
(-0.0561279 0.0544932 0)
(-0.0581339 0.0170031 0)
(-0.060487 -0.0198542 0)
(-0.0632024 -0.0567496 0)
(-0.0665907 -0.0939972 0)
(-0.0718056 -0.132679 0)
(-0.0806867 -0.177312 0)
(-0.093202 -0.237023 0)
(-0.0990725 -0.314215 0)
(-0.0936974 -0.362598 0)
(-0.03045 -0.234647 0)
(0.00450636 0.0954608 0)
(0.00274344 0.179385 0)
(-0.00481123 0.218621 0)
(-0.0115282 0.23714 0)
(-0.0158916 0.234548 0)
(-0.0178104 0.211984 0)
(-0.0184644 0.176398 0)
(-0.0188884 0.135651 0)
(-0.0200204 0.0950197 0)
(-0.0221406 0.0564381 0)
(-0.0249059 0.0194776 0)
(-0.0281471 -0.016941 0)
(-0.0318769 -0.053478 0)
(-0.036121 -0.0901822 0)
(-0.0415803 -0.12722 0)
(-0.0498394 -0.167856 0)
(-0.0638697 -0.223192 0)
(-0.0736677 -0.307241 0)
(-0.080508 -0.386666 0)
(-0.0227902 -0.298393 0)
(0.00732174 0.0896166 0)
(0.0128042 0.180169 0)
(0.01295 0.221864 0)
(0.0127215 0.239672 0)
(0.013434 0.236077 0)
(0.0147855 0.213041 0)
(0.0158009 0.177537 0)
(0.0159519 0.137238 0)
(0.0148743 0.0971787 0)
(0.0125888 0.0591928 0)
(0.00942971 0.0228786 0)
(0.00545799 -0.0128146 0)
(0.000555483 -0.048609 0)
(-0.00519957 -0.0845534 0)
(-0.0122271 -0.120387 0)
(-0.0210338 -0.157784 0)
(-0.0370588 -0.207497 0)
(-0.0493072 -0.293255 0)
(-0.0680134 -0.398636 0)
(-0.0146128 -0.351172 0)
(0.008758 0.0781606 0)
(0.0208122 0.173077 0)
(0.0282409 0.218 0)
(0.0341097 0.236023 0)
(0.0398577 0.23255 0)
(0.0450717 0.210474 0)
(0.0487698 0.176426 0)
(0.0505801 0.13762 0)
(0.0504674 0.0988419 0)
(0.0486611 0.0619428 0)
(0.0454841 0.0267262 0)
(0.040921 -0.00775891 0)
(0.03485 -0.0422406 0)
(0.027293 -0.0768496 0)
(0.0176121 -0.111236 0)
(0.00666269 -0.146062 0)
(-0.012561 -0.190738 0)
(-0.0258781 -0.274879 0)
(-0.056604 -0.401347 0)
(-0.00649261 -0.393392 0)
(0.008223 0.0631993 0)
(0.0254295 0.158662 0)
(0.0398941 0.207488 0)
(0.0520195 0.227229 0)
(0.0632284 0.225252 0)
(0.0731329 0.205454 0)
(0.080659 0.174004 0)
(0.0853222 0.137497 0)
(0.0871593 0.100505 0)
(0.086492 0.0650387 0)
(0.0836904 0.0312702 0)
(0.0786784 -0.0015712 0)
(0.0713147 -0.0339833 0)
(0.0617785 -0.0664412 0)
(0.049002 -0.0987037 0)
(0.0345506 -0.130903 0)
(0.010713 -0.170705 0)
(-0.00256807 -0.251751 0)
(-0.0461532 -0.397631 0)
(0.00219602 -0.428658 0)
(0.00570243 0.0479461 0)
(0.0252342 0.139156 0)
(0.0453284 0.190006 0)
(0.063339 0.210792 0)
(0.0804345 0.210366 0)
(0.0961358 0.193546 0)
(0.109006 0.165873 0)
(0.118164 0.133046 0)
(0.123433 0.0992258 0)
(0.125056 0.066466 0)
(0.123329 0.0353039 0)
(0.118401 0.00521381 0)
(0.109833 -0.0240748 0)
(0.0982141 -0.0532386 0)
(0.0816799 -0.082286 0)
(0.0630697 -0.111959 0)
(0.0340066 -0.147961 0)
(0.020566 -0.226109 0)
(-0.0362711 -0.390726 0)
(0.0126087 -0.458221 0)
(0.00187878 0.0353718 0)
(0.0198426 0.117151 0)
(0.0444239 0.168452 0)
(0.0684877 0.19032 0)
(0.0921552 0.191559 0)
(0.114518 0.177901 0)
(0.133808 0.154541 0)
(0.14863 0.126227 0)
(0.158433 0.0965584 0)
(0.163354 0.0674865 0)
(0.163371 0.0398299 0)
(0.159169 0.0134203 0)
(0.149548 -0.0119792 0)
(0.136011 -0.0369005 0)
(0.115457 -0.0616658 0)
(0.0927236 -0.0879644 0)
(0.0582962 -0.121248 0)
(0.0431212 -0.197953 0)
(-0.0251 -0.380944 0)
(0.0272765 -0.481122 0)
(-0.00317712 0.0310372 0)
(0.00714963 0.0979935 0)
(0.0308151 0.139705 0)
(0.0602689 0.158638 0)
(0.0914078 0.160658 0)
(0.121859 0.150476 0)
(0.149056 0.132372 0)
(0.171147 0.109993 0)
(0.186995 0.0862864 0)
(0.19675 0.0628968 0)
(0.199731 0.0407697 0)
(0.197397 0.0199039 0)
(0.187552 0.000169689 0)
(0.173293 -0.0189806 0)
(0.149558 -0.0379339 0)
(0.124207 -0.0599664 0)
(0.0848912 -0.0924083 0)
(0.0655254 -0.171979 0)
(-0.00696292 -0.36597 0)
(0.0508584 -0.489083 0)
(-0.0121727 0.0210643 0)
(-0.00785173 0.0878089 0)
(0.0144934 0.119306 0)
(0.048255 0.129985 0)
(0.0863698 0.129227 0)
(0.124307 0.121053 0)
(0.158833 0.107917 0)
(0.187491 0.0916593 0)
(0.208818 0.0745363 0)
(0.223471 0.0575116 0)
(0.229645 0.0417218 0)
(0.23062 0.0270147 0)
(0.222116 0.013831 0)
(0.210897 0.00108702 0)
(0.187631 -0.0116395 0)
(0.165767 -0.0295848 0)
(0.124359 -0.061599 0)
(0.102621 -0.141727 0)
(0.0349398 -0.325117 0)
(0.0913938 -0.455146 0)
(-0.10488 0.0842354 0)
(-0.0772859 0.0698838 0)
(-0.0502104 0.0710214 0)
(-0.000976864 0.0738565 0)
(0.0491902 0.0736332 0)
(0.0989266 0.0697125 0)
(0.143826 0.0631828 0)
(0.184436 0.0546753 0)
(0.215696 0.0459027 0)
(0.243263 0.03701 0)
(0.259208 0.029114 0)
(0.274593 0.0217547 0)
(0.276004 0.0157092 0)
(0.281082 0.00986549 0)
(0.266959 0.00361923 0)
(0.26161 -0.00732506 0)
(0.224653 -0.0328685 0)
(0.213984 -0.0938927 0)
(0.148932 -0.229518 0)
(0.170404 -0.341468 0)
(0.130723 0.104467 0)
(0.159956 0.0768354 0)
(0.214565 0.0548541 0)
(0.272581 0.0427686 0)
(0.323734 0.0365377 0)
(0.374142 0.0322113 0)
(0.416816 0.0290277 0)
(0.460412 0.0256533 0)
(0.492397 0.0230357 0)
(0.526899 0.0199042 0)
(0.546163 0.0178483 0)
(0.57207 0.0149771 0)
(0.578768 0.0136526 0)
(0.597863 0.0109008 0)
(0.590493 0.0100451 0)
(0.600291 0.00562261 0)
(0.566013 0.000695511 0)
(0.54749 -0.0178437 0)
(0.436728 -0.0502089 0)
(0.337388 -0.101351 0)
)
;

boundaryField
{
    movingWall
    {
        type            fixedValue;
        value           uniform (1 0 0);
    }
    fixedWalls
    {
        type            noSlip;
    }
    frontAndBack
    {
        type            empty;
    }
}


// ************************************************************************* //
