/*--------------------------------*- C++ -*----------------------------------*\
| =========                 |                                                 |
| \\      /  F ield         | OpenFOAM: The Open Source CFD Toolbox           |
|  \\    /   O peration     | Version:  2212                                  |
|   \\  /    A nd           | Website:  www.openfoam.com                      |
|    \\/     M anipulation  |                                                 |
\*---------------------------------------------------------------------------*/
FoamFile
{
    version     2.0;
    format      ascii;
    arch        "LSB;label=32;scalar=64";
    class       volScalarField;
    location    "4.26";
    object      p;
}
// * * * * * * * * * * * * * * * * * * * * * * * * * * * * * * * * * * * * * //

dimensions      [0 2 -2 0 0 0 0];

internalField   nonuniform List<scalar> 
400
(
-7.39881e-09
-0.000150474
-0.000531579
-0.00106498
-0.00172115
-0.00247655
-0.00316265
-0.00357236
-0.00353931
-0.00290998
-0.00153078
0.000626521
0.00324801
0.00551339
0.00654841
0.00596485
0.00406986
0.00223166
0.00119491
0.00112331
0.000116031
-5.7361e-05
-0.000373585
-0.000758482
-0.00123588
-0.00187519
-0.00268559
-0.00351417
-0.00404434
-0.00390224
-0.00281663
-0.000805759
0.00169939
0.00397124
0.00514928
0.00479269
0.00317978
0.00146121
0.000680689
0.000767379
0.000532042
0.000263589
-7.56555e-05
-0.000554724
-0.00133598
-0.00255726
-0.00417841
-0.0059238
-0.00732736
-0.00786331
-0.00718946
-0.00539844
-0.00284039
-0.000149838
0.00184139
0.00249258
0.00179246
0.000594712
-0.000302271
-0.000304123
0.0011391
0.000732186
0.000189085
-0.000767448
-0.00242528
-0.00488384
-0.00790669
-0.0109973
-0.0135525
-0.0150118
-0.0150427
-0.0136875
-0.0111602
-0.00791512
-0.00465191
-0.00211509
-0.000776232
-0.000611563
-0.00119272
-0.00182411
0.00155639
0.000954145
-2.87286e-05
-0.00190527
-0.00494914
-0.00907191
-0.0137499
-0.0182632
-0.0219574
-0.0243682
-0.025237
-0.0244443
-0.0221125
-0.0185276
-0.0141246
-0.00950799
-0.00547096
-0.00284681
-0.00210057
-0.00391627
0.00125755
0.000420397
-0.0011974
-0.00426044
-0.00889806
-0.0146988
-0.0208145
-0.0263872
-0.030807
-0.0337573
-0.0351109
-0.0347682
-0.0328102
-0.0293808
-0.0246175
-0.0187365
-0.0123354
-0.00682339
-0.00429893
-0.00641065
-8.15439e-05
-0.00116546
-0.00348046
-0.00771375
-0.013763
-0.0208487
-0.0278758
-0.0339616
-0.0386119
-0.0416668
-0.0431347
-0.0430367
-0.0414386
-0.0384061
-0.0339131
-0.0278394
-0.0203002
-0.0125351
-0.00773411
-0.00764552
-0.00246671
-0.00373959
-0.00664795
-0.0117813
-0.0188023
-0.0266307
-0.0340425
-0.040216
-0.0448019
-0.0477662
-0.0491996
-0.0491988
-0.0478422
-0.0451743
-0.0411419
-0.0355071
-0.028005
-0.0191439
-0.0116747
-0.00788412
-0.00552553
-0.00688212
-0.0101744
-0.0158385
-0.023355
-0.0314593
-0.0388968
-0.0449423
-0.0493663
-0.0522113
-0.0536015
-0.0536458
-0.052419
-0.0499766
-0.046323
-0.0412931
-0.0344644
-0.0256527
-0.016513
-0.00986907
-0.00869032
-0.0100204
-0.0134709
-0.0193134
-0.0269286
-0.0349925
-0.0422825
-0.0481524
-0.05244
-0.0552126
-0.0565903
-0.0566627
-0.0554937
-0.0531525
-0.0497145
-0.0451591
-0.039162
-0.0311683
-0.0220668
-0.0141558
-0.0114352
-0.0126664
-0.0160643
-0.0217943
-0.0292137
-0.0370528
-0.0441489
-0.0498866
-0.0541111
-0.0568712
-0.0582633
-0.0583542
-0.0571956
-0.0548625
-0.0514905
-0.0472009
-0.0419189
-0.0349904
-0.0269021
-0.0189435
-0.0134661
-0.0145128
-0.0176876
-0.0230442
-0.0300276
-0.037516
-0.044427
-0.0501213
-0.0543795
-0.0571978
-0.0586339
-0.0587355
-0.0575455
-0.0551404
-0.0517076
-0.0474815
-0.0426951
-0.0366653
-0.0297288
-0.0221614
-0.0147504
-0.0154617
-0.0181882
-0.0229508
-0.0293087
-0.0363549
-0.043099
-0.0488387
-0.0532334
-0.0561877
-0.0577063
-0.0578137
-0.0565485
-0.0540091
-0.0504082
-0.0460429
-0.0415005
-0.0359547
-0.0299555
-0.0226632
-0.0153842
-0.015627
-0.0176354
-0.0215215
-0.0270524
-0.0335643
-0.0401475
-0.0460061
-0.0506421
-0.0538288
-0.0554946
-0.055636
-0.0542717
-0.0515286
-0.0476629
-0.0430573
-0.0383589
-0.0328856
-0.0278961
-0.0201161
-0.0154982
-0.0152204
-0.0162303
-0.0189172
-0.0233888
-0.0292535
-0.0356637
-0.0417018
-0.0466813
-0.0502082
-0.0521047
-0.0523136
-0.0508763
-0.0478847
-0.0436654
-0.0386551
-0.0335375
-0.0279415
-0.0241336
-0.0143338
-0.0152119
-0.0144919
-0.0141932
-0.0153224
-0.0185123
-0.0236231
-0.0298425
-0.036105
-0.0415189
-0.0454994
-0.0477442
-0.0481269
-0.0466725
-0.0434513
-0.0388287
-0.0332655
-0.0275428
-0.0216414
-0.0181203
-0.00391812
-0.0146126
-0.0135803
-0.011682
-0.0110515
-0.0128819
-0.0172281
-0.0232746
-0.0297944
-0.0357091
-0.0402441
-0.0429666
-0.0436536
-0.0422998
-0.038939
-0.0339001
-0.0275768
-0.0207323
-0.0134496
-0.00703222
0.0158337
-0.0145577
-0.0126421
-0.00866543
-0.00627647
-0.006934
-0.0107059
-0.0166799
-0.0234891
-0.0299398
-0.0350953
-0.0384124
-0.0395462
-0.0384445
-0.0351193
-0.0297162
-0.0222747
-0.0130513
-0.00100998
0.0163037
0.056737
-0.0117935
-0.0118433
-0.00579097
-0.00187993
-0.00186328
-0.00544903
-0.0115271
-0.0186555
-0.0256066
-0.0313304
-0.0352531
-0.0369466
-0.0363151
-0.0330849
-0.0271054
-0.0176043
-0.00339865
0.0200911
0.0602579
0.129457
-0.029507
-0.0106604
-0.000701631
0.00294707
0.00231804
-0.00163594
-0.00798836
-0.0154318
-0.0227441
-0.0288507
-0.0331524
-0.0351977
-0.0348517
-0.0316994
-0.0251087
-0.0129096
0.00918985
0.0508026
0.122479
0.225748
)
;

boundaryField
{
    movingWall
    {
        type            zeroGradient;
    }
    fixedWalls
    {
        type            zeroGradient;
    }
    frontAndBack
    {
        type            empty;
    }
}


// ************************************************************************* //
