/*--------------------------------*- C++ -*----------------------------------*\
| =========                 |                                                 |
| \\      /  F ield         | OpenFOAM: The Open Source CFD Toolbox           |
|  \\    /   O peration     | Version:  2212                                  |
|   \\  /    A nd           | Website:  www.openfoam.com                      |
|    \\/     M anipulation  |                                                 |
\*---------------------------------------------------------------------------*/
FoamFile
{
    version     2.0;
    format      ascii;
    arch        "LSB;label=32;scalar=64";
    class       volScalarField;
    location    "3.975";
    object      p;
}
// * * * * * * * * * * * * * * * * * * * * * * * * * * * * * * * * * * * * * //

dimensions      [0 2 -2 0 0 0 0];

internalField   nonuniform List<scalar> 
400
(
2.47206e-07
-0.000149413
-0.000528796
-0.00106015
-0.001714
-0.00246647
-0.00315019
-0.00355846
-0.0035248
-0.00289594
-0.00151906
0.000633952
0.0032513
0.0055155
0.00655433
0.0059791
0.00409276
0.00225958
0.00122377
0.00115129
0.000116767
-5.58858e-05
-0.000370608
-0.000754172
-0.00123013
-0.00186704
-0.00267386
-0.00349846
-0.00402569
-0.00388303
-0.00279975
-0.000793191
0.00170773
0.00397817
0.00515947
0.00481015
0.00320589
0.00149084
0.000710737
0.000795949
0.000531186
0.000264193
-7.3478e-05
-0.000550744
-0.00132881
-0.00254458
-0.00415818
-0.00589553
-0.0072929
-0.00782672
-0.00715512
-0.00536849
-0.00281561
-0.000128757
0.00186221
0.00251663
0.00182149
0.000626305
-0.00027027
-0.000273646
0.00113473
0.000729567
0.000189417
-0.000762327
-0.00241186
-0.00485836
-0.00786715
-0.0109443
-0.0134895
-0.0149443
-0.014976
-0.0136256
-0.0111057
-0.00786855
-0.00461177
-0.00207902
-0.000742404
-0.000579003
-0.00116026
-0.00179175
0.00154645
0.000947413
-2.94109e-05
-0.00189519
-0.00492268
-0.00902485
-0.0136814
-0.0181761
-0.0218568
-0.0242605
-0.0251287
-0.0243419
-0.0220204
-0.0184479
-0.0140576
-0.00945316
-0.00542692
-0.00281102
-0.00206898
-0.00388128
0.0012445
0.000412075
-0.00119534
-0.00424007
-0.00885218
-0.0146241
-0.0207123
-0.0262625
-0.0306665
-0.0336084
-0.0349613
-0.0346256
-0.03268
-0.0292665
-0.0245208
-0.0186582
-0.0122754
-0.00677945
-0.00426367
-0.00637222
-9.29107e-05
-0.00117053
-0.00347046
-0.00767808
-0.0136938
-0.0207441
-0.0277395
-0.0337997
-0.0384321
-0.0414773
-0.0429441
-0.0428536
-0.0412699
-0.0382567
-0.0337859
-0.0277357
-0.0202203
-0.0124778
-0.00769256
-0.00761103
-0.00247076
-0.00373615
-0.00662548
-0.0117273
-0.0187088
-0.0264973
-0.0338739
-0.040019
-0.0445842
-0.0475364
-0.0489675
-0.0489743
-0.0476339
-0.0449889
-0.0409835
-0.0353771
-0.0279032
-0.0190696
-0.011625
-0.00785092
-0.00551825
-0.0068667
-0.0101373
-0.015766
-0.0232391
-0.0313002
-0.0386995
-0.0447134
-0.0491136
-0.0519439
-0.0533303
-0.0533822
-0.0521734
-0.0497572
-0.046135
-0.0411383
-0.0343415
-0.0255602
-0.016449
-0.00982618
-0.00867101
-0.00999273
-0.0134202
-0.0192252
-0.0267946
-0.0348131
-0.0420623
-0.0478978
-0.0521588
-0.0549147
-0.0562876
-0.0563678
-0.0552182
-0.0529057
-0.0495024
-0.044984
-0.0390219
-0.0310601
-0.0219866
-0.0140954
-0.0114064
-0.0126292
-0.0160038
-0.0216958
-0.0290687
-0.0368609
-0.0439143
-0.0496154
-0.0538114
-0.0565535
-0.0579404
-0.0580394
-0.0569013
-0.0545986
-0.0512636
-0.0470136
-0.0417691
-0.0348731
-0.0268109
-0.0188686
-0.0134321
-0.0144706
-0.0176227
-0.0229426
-0.0298803
-0.0373216
-0.0441889
-0.0498453
-0.0540739
-0.0568734
-0.0583041
-0.0584141
-0.0572456
-0.0548723
-0.051478
-0.0472931
-0.0425457
-0.0365486
-0.029636
-0.0220813
-0.0147151
-0.0154196
-0.0181256
-0.0228542
-0.029169
-0.0361693
-0.0428696
-0.0485708
-0.0529352
-0.0558704
-0.0573832
-0.0574993
-0.0562564
-0.0537498
-0.0501887
-0.045866
-0.0413636
-0.0358504
-0.0298719
-0.0225899
-0.0153503
-0.0155891
-0.017581
-0.0214379
-0.02693
-0.0333987
-0.0399391
-0.0457592
-0.0503646
-0.0535316
-0.0551912
-0.0553404
-0.0539994
-0.0512904
-0.0474658
-0.0429039
-0.038247
-0.0328058
-0.027831
-0.0200625
-0.0154671
-0.0151889
-0.0161884
-0.0188532
-0.0232926
-0.0291182
-0.0354873
-0.0414872
-0.0464357
-0.0499424
-0.0518327
-0.0520505
-0.0506346
-0.0476776
-0.0435009
-0.0385357
-0.0334606
-0.0278965
-0.0240983
-0.0143124
-0.015185
-0.0144677
-0.0141658
-0.0152825
-0.0184485
-0.0235256
-0.0297064
-0.0359311
-0.0413132
-0.0452724
-0.0475097
-0.0478997
-0.0464674
-0.0432817
-0.0387029
-0.0331864
-0.0275068
-0.0216367
-0.0181325
-0.00393663
-0.0145915
-0.0135635
-0.01167
-0.0110379
-0.0128535
-0.0171719
-0.0231822
-0.0296644
-0.0355463
-0.0400582
-0.042771
-0.0434636
-0.0421306
-0.0388059
-0.0338119
-0.0275376
-0.0207392
-0.0134922
-0.00709803
0.0157744
-0.0145453
-0.0126338
-0.00866859
-0.00628817
-0.00693895
-0.0106882
-0.0166284
-0.0234004
-0.029817
-0.0349476
-0.0382529
-0.0393906
-0.0383088
-0.0350164
-0.0296579
-0.0222682
-0.0130969
-0.0010982
0.0161923
0.0566431
-0.0117901
-0.0118453
-0.00581162
-0.00191414
-0.00189417
-0.00546009
-0.0115058
-0.0185968
-0.0255125
-0.0312095
-0.0351179
-0.0368122
-0.0361969
-0.0329984
-0.0270648
-0.0176174
-0.00346701
0.0199774
0.0601274
0.129348
-0.029501
-0.0106693
-0.000732442
0.00290257
0.00227603
-0.00165884
-0.00797949
-0.0153854
-0.0226617
-0.0287403
-0.033026
-0.0350703
-0.034739
-0.0316168
-0.0250681
-0.0129194
0.00912522
0.0506962
0.122361
0.22565
)
;

boundaryField
{
    movingWall
    {
        type            zeroGradient;
    }
    fixedWalls
    {
        type            zeroGradient;
    }
    frontAndBack
    {
        type            empty;
    }
}


// ************************************************************************* //
