/*--------------------------------*- C++ -*----------------------------------*\
| =========                 |                                                 |
| \\      /  F ield         | OpenFOAM: The Open Source CFD Toolbox           |
|  \\    /   O peration     | Version:  2212                                  |
|   \\  /    A nd           | Website:  www.openfoam.com                      |
|    \\/     M anipulation  |                                                 |
\*---------------------------------------------------------------------------*/
FoamFile
{
    version     2.0;
    format      ascii;
    arch        "LSB;label=32;scalar=64";
    class       volVectorField;
    location    "3.46";
    object      U;
}
// * * * * * * * * * * * * * * * * * * * * * * * * * * * * * * * * * * * * * //

dimensions      [0 1 -1 0 0 0 0];

internalField   nonuniform List<vector> 
400
(
(0.00162374 -0.00163543 0)
(0.00465433 -0.0018315 0)
(0.00630846 -0.00116738 0)
(0.00536968 -0.000552733 0)
(0.00130847 0.000204197 0)
(-0.00695563 0.00173216 0)
(-0.020471 0.00468575 0)
(-0.0390294 0.00851946 0)
(-0.0599236 0.0110489 0)
(-0.0780385 0.0103581 0)
(-0.0887222 0.00674027 0)
(-0.089562 0.00172961 0)
(-0.0796681 -0.00348139 0)
(-0.0598445 -0.00810455 0)
(-0.0337801 -0.0106846 0)
(-0.00587284 -0.00969451 0)
(0.0159959 -0.00482225 0)
(0.0238469 0.00264744 0)
(0.0158797 0.00632974 0)
(0.00426187 0.00463787 0)
(0.00161762 -0.00485295 0)
(0.00288398 -0.00380928 0)
(-0.000765306 0.000671119 0)
(-0.0115407 0.0063831 0)
(-0.0312566 0.0138154 0)
(-0.0603726 0.0232959 0)
(-0.0954192 0.0323919 0)
(-0.129561 0.0364523 0)
(-0.156837 0.0330912 0)
(-0.173942 0.0232574 0)
(-0.179434 0.00923811 0)
(-0.173321 -0.00663402 0)
(-0.156178 -0.0226347 0)
(-0.1287 -0.0362881 0)
(-0.0931294 -0.0439715 0)
(-0.0521808 -0.0414285 0)
(-0.0117581 -0.0262747 0)
(0.0163277 -0.0015784 0)
(0.0175195 0.0158262 0)
(0.00547559 0.0145703 0)
(-0.000328412 -0.00539151 0)
(-0.00552958 0.00111696 0)
(-0.0196034 0.0142113 0)
(-0.0440391 0.0306948 0)
(-0.0791515 0.048492 0)
(-0.120275 0.0631416 0)
(-0.159882 0.0694237 0)
(-0.192484 0.0651791 0)
(-0.215921 0.0517143 0)
(-0.229577 0.0314658 0)
(-0.233444 0.00675256 0)
(-0.228159 -0.0204057 0)
(-0.21403 -0.0478665 0)
(-0.190557 -0.0720547 0)
(-0.157464 -0.0878755 0)
(-0.114721 -0.0883335 0)
(-0.0641305 -0.0666395 0)
(-0.013966 -0.0229825 0)
(0.0092894 0.0173221 0)
(0.00414732 0.0231931 0)
(-0.00345471 0.000872947 0)
(-0.0173204 0.0173477 0)
(-0.0428902 0.040887 0)
(-0.0783512 0.0669257 0)
(-0.120839 0.0895089 0)
(-0.163129 0.102176 0)
(-0.198838 0.101501 0)
(-0.225938 0.088675 0)
(-0.244656 0.0667934 0)
(-0.255587 0.0385435 0)
(-0.25956 0.00579404 0)
(-0.257377 -0.030138 0)
(-0.248976 -0.0670632 0)
(-0.233312 -0.102069 0)
(-0.208395 -0.129742 0)
(-0.171532 -0.141336 0)
(-0.120207 -0.12474 0)
(-0.0564019 -0.0706828 0)
(-0.00110751 0.00295954 0)
(0.00473254 0.0277758 0)
(-0.00654478 0.0149836 0)
(-0.0281925 0.0437169 0)
(-0.0620922 0.0757908 0)
(-0.102487 0.106953 0)
(-0.144637 0.129019 0)
(-0.181532 0.136183 0)
(-0.20964 0.127886 0)
(-0.229261 0.107601 0)
(-0.241672 0.0791694 0)
(-0.248586 0.0453781 0)
(-0.251707 0.00776499 0)
(-0.251985 -0.032888 0)
(-0.249213 -0.0754686 0)
(-0.242801 -0.118686 0)
(-0.229949 -0.158628 0)
(-0.206032 -0.18689 0)
(-0.165049 -0.188208 0)
(-0.102381 -0.141882 0)
(-0.0220817 -0.0390798 0)
(0.00726845 0.0265915 0)
(-0.00831723 0.0346295 0)
(-0.0344081 0.0756021 0)
(-0.0715663 0.112964 0)
(-0.11102 0.145148 0)
(-0.147782 0.163435 0)
(-0.17639 0.163693 0)
(-0.195745 0.147944 0)
(-0.207327 0.121183 0)
(-0.21311 0.0877677 0)
(-0.215583 0.0507005 0)
(-0.216771 0.011454 0)
(-0.21772 -0.0295884 0)
(-0.218651 -0.0729409 0)
(-0.219624 -0.119049 0)
(-0.218421 -0.166739 0)
(-0.20991 -0.210542 0)
(-0.186009 -0.236263 0)
(-0.138185 -0.216707 0)
(-0.0620834 -0.118113 0)
(0.00566369 0.0138413 0)
(-0.00807835 0.0562337 0)
(-0.0345001 0.108317 0)
(-0.0702475 0.147903 0)
(-0.104885 0.178162 0)
(-0.13416 0.190964 0)
(-0.154386 0.183983 0)
(-0.166117 0.161298 0)
(-0.171421 0.129004 0)
(-0.172705 0.0919109 0)
(-0.172517 0.0530778 0)
(-0.172452 0.0137627 0)
(-0.17324 -0.0260257 0)
(-0.175451 -0.0675045 0)
(-0.179618 -0.112075 0)
(-0.185044 -0.160932 0)
(-0.18801 -0.212928 0)
(-0.180552 -0.258992 0)
(-0.152687 -0.272828 0)
(-0.0981882 -0.204225 0)
(-0.00882209 -0.014797 0)
(-0.00595921 0.0763049 0)
(-0.0290365 0.138263 0)
(-0.0600055 0.178125 0)
(-0.0879931 0.204929 0)
(-0.109737 0.211743 0)
(-0.123114 0.19788 0)
(-0.129584 0.169111 0)
(-0.131425 0.132398 0)
(-0.131107 0.0928151 0)
(-0.130651 0.0531564 0)
(-0.130823 0.0141796 0)
(-0.13184 -0.0245324 0)
(-0.134192 -0.0641123 0)
(-0.138591 -0.105939 0)
(-0.145629 -0.152135 0)
(-0.153902 -0.205121 0)
(-0.157289 -0.262815 0)
(-0.145384 -0.305415 0)
(-0.111142 -0.274955 0)
(-0.0305188 -0.0746687 0)
(-0.00263231 0.0918735 0)
(-0.0198547 0.162831 0)
(-0.044049 0.202097 0)
(-0.0648735 0.224882 0)
(-0.0799413 0.226148 0)
(-0.0882824 0.206641 0)
(-0.0916848 0.173306 0)
(-0.0922766 0.133653 0)
(-0.0921858 0.0928076 0)
(-0.0926576 0.0531167 0)
(-0.0937873 0.0147077 0)
(-0.0954902 -0.0232672 0)
(-0.0979651 -0.0617082 0)
(-0.101748 -0.10146 0)
(-0.108011 -0.144339 0)
(-0.117463 -0.194455 0)
(-0.126799 -0.2562 0)
(-0.125474 -0.320405 0)
(-0.106614 -0.331977 0)
(-0.0369517 -0.16153 0)
(0.00120859 0.100717 0)
(-0.00864831 0.180273 0)
(-0.0249653 0.219335 0)
(-0.0387058 0.238814 0)
(-0.0480415 0.235919 0)
(-0.0527892 0.212417 0)
(-0.0545652 0.176037 0)
(-0.0550226 0.134679 0)
(-0.0557126 0.093419 0)
(-0.0572346 0.0540823 0)
(-0.0593707 0.0162286 0)
(-0.0619636 -0.0212783 0)
(-0.065021 -0.0591989 0)
(-0.06876 -0.0978937 0)
(-0.0741632 -0.138258 0)
(-0.0828568 -0.184208 0)
(-0.094847 -0.24421 0)
(-0.0999921 -0.321005 0)
(-0.0946426 -0.369286 0)
(-0.0307368 -0.240165 0)
(0.00497992 0.101789 0)
(0.00293854 0.189621 0)
(-0.00519371 0.229614 0)
(-0.0121594 0.246672 0)
(-0.0164627 0.240945 0)
(-0.0182694 0.215198 0)
(-0.0188434 0.177496 0)
(-0.0192346 0.135744 0)
(-0.020406 0.0947816 0)
(-0.0225531 0.0560502 0)
(-0.0253668 0.0188272 0)
(-0.02876 -0.0181162 0)
(-0.0327518 -0.0555664 0)
(-0.037323 -0.0937032 0)
(-0.0430648 -0.132623 0)
(-0.0513176 -0.175031 0)
(-0.0649647 -0.230993 0)
(-0.0739525 -0.31447 0)
(-0.0809551 -0.393623 0)
(-0.0228695 -0.304439 0)
(0.00817384 0.0954515 0)
(0.0138617 0.19054 0)
(0.0137874 0.233049 0)
(0.0134215 0.249369 0)
(0.0140559 0.242634 0)
(0.0152703 0.216388 0)
(0.0161527 0.178707 0)
(0.0162219 0.137332 0)
(0.0150746 0.096893 0)
(0.0127647 0.0587642 0)
(0.00959375 0.0222487 0)
(0.00555184 -0.0138686 0)
(0.000497533 -0.0504775 0)
(-0.00546657 -0.0877915 0)
(-0.0127531 -0.125558 0)
(-0.0216549 -0.165045 0)
(-0.0374757 -0.215731 0)
(-0.0489044 -0.300696 0)
(-0.0679563 -0.405444 0)
(-0.0144966 -0.357294 0)
(0.00992155 0.0828623 0)
(0.0227216 0.183084 0)
(0.0302618 0.229214 0)
(0.0361019 0.245921 0)
(0.0416917 0.239404 0)
(0.0465912 0.214093 0)
(0.0499648 0.177742 0)
(0.0515484 0.13772 0)
(0.0512957 0.0984631 0)
(0.0494357 0.0614038 0)
(0.0462512 0.0260367 0)
(0.0416836 -0.00877719 0)
(0.0355568 -0.0439904 0)
(0.0279465 -0.0798922 0)
(0.0181072 -0.116189 0)
(0.00703424 -0.153296 0)
(-0.0121927 -0.199324 0)
(-0.0248378 -0.282612 0)
(-0.0561403 -0.408061 0)
(-0.00624765 -0.399307 0)
(0.00944226 0.0662196 0)
(0.0280617 0.167665 0)
(0.0430794 0.218348 0)
(0.0553955 0.237224 0)
(0.0665104 0.232551 0)
(0.0760527 0.209645 0)
(0.0831287 0.1758 0)
(0.0874122 0.137889 0)
(0.0889839 0.100244 0)
(0.0881751 0.0645085 0)
(0.0853398 0.0305542 0)
(0.0803254 -0.00263663 0)
(0.0729616 -0.0357472 0)
(0.0634942 -0.0694117 0)
(0.0506421 -0.103478 0)
(0.0361036 -0.137958 0)
(0.0120895 -0.179334 0)
(-0.000896494 -0.259497 0)
(-0.0453015 -0.404004 0)
(0.00258356 -0.434026 0)
(0.00660789 0.0490761 0)
(0.0282661 0.146571 0)
(0.0494956 0.200152 0)
(0.068006 0.220714 0)
(0.0851914 0.218032 0)
(0.100643 0.198308 0)
(0.113085 0.168194 0)
(0.121812 0.13378 0)
(0.126738 0.099107 0)
(0.128146 0.0659303 0)
(0.126328 0.0345065 0)
(0.121392 0.0040351 0)
(0.112859 -0.0259004 0)
(0.101363 -0.0561636 0)
(0.0847458 -0.0868505 0)
(0.0660456 -0.118654 0)
(0.0366055 -0.156345 0)
(0.0226748 -0.233683 0)
(-0.0350872 -0.396581 0)
(0.0131994 -0.462685 0)
(0.00226019 0.0348798 0)
(0.0226607 0.122329 0)
(0.0492112 0.177106 0)
(0.0743764 0.199577 0)
(0.0985869 0.199299 0)
(0.121081 0.18324 0)
(0.14019 0.157629 0)
(0.154684 0.127672 0)
(0.164141 0.0969853 0)
(0.168792 0.0673081 0)
(0.168619 0.0392402 0)
(0.164348 0.0123727 0)
(0.154652 -0.0136694 0)
(0.141171 -0.0396309 0)
(0.120392 -0.0658697 0)
(0.0974278 -0.0939979 0)
(0.0623365 -0.128879 0)
(0.0456819 -0.204618 0)
(-0.0234942 -0.385413 0)
(0.0281384 -0.484394 0)
(-0.0033494 0.0293011 0)
(0.00935223 0.100796 0)
(0.0354996 0.146582 0)
(0.0666466 0.166709 0)
(0.0989238 0.167853 0)
(0.130094 0.155812 0)
(0.157607 0.135768 0)
(0.179726 0.111811 0)
(0.195424 0.0870001 0)
(0.205044 0.0628745 0)
(0.207816 0.0401984 0)
(0.205461 0.0188245 0)
(0.195377 -0.00158491 0)
(0.181021 -0.0215896 0)
(0.156781 -0.0416777 0)
(0.13085 -0.0650051 0)
(0.0902774 -0.0987385 0)
(0.0685189 -0.177697 0)
(-0.00514434 -0.368988 0)
(0.0517746 -0.491035 0)
(-0.0135286 0.019205 0)
(-0.0075174 0.0882117 0)
(0.0181488 0.123114 0)
(0.0544608 0.135544 0)
(0.0947317 0.134882 0)
(0.134312 0.125768 0)
(0.16988 0.111351 0)
(0.199132 0.0938918 0)
(0.220601 0.0757924 0)
(0.235326 0.058037 0)
(0.241233 0.0416159 0)
(0.242086 0.026365 0)
(0.233021 0.0125034 0)
(0.221498 -0.000888422 0)
(0.197192 -0.0145191 0)
(0.174077 -0.033228 0)
(0.130792 -0.0659181 0)
(0.106372 -0.144842 0)
(0.0367949 -0.325932 0)
(0.0920997 -0.455764 0)
(-0.105697 0.0829053 0)
(-0.0775344 0.0693269 0)
(-0.0488053 0.0729112 0)
(0.00278432 0.0769766 0)
(0.0554248 0.0770961 0)
(0.107307 0.0728209 0)
(0.153741 0.0656126 0)
(0.195447 0.0563955 0)
(0.227127 0.0469605 0)
(0.254937 0.0375461 0)
(0.270589 0.0291557 0)
(0.285747 0.0214139 0)
(0.286394 0.0149167 0)
(0.290867 0.00872182 0)
(0.275295 0.00196206 0)
(0.268797 -0.00915542 0)
(0.230269 -0.0347795 0)
(0.217158 -0.0950374 0)
(0.149979 -0.229701 0)
(0.170629 -0.341512 0)
(0.130161 0.103897 0)
(0.15873 0.0756142 0)
(0.212798 0.0536428 0)
(0.271237 0.0419329 0)
(0.323493 0.0360993 0)
(0.375434 0.0320363 0)
(0.419509 0.0289554 0)
(0.46432 0.0256016 0)
(0.497035 0.0229372 0)
(0.532006 0.0197657 0)
(0.551326 0.0176393 0)
(0.577141 0.0147309 0)
(0.583432 0.0133273 0)
(0.602037 0.0105365 0)
(0.593849 0.00960248 0)
(0.602795 0.005201 0)
(0.567453 0.000263733 0)
(0.547762 -0.0181998 0)
(0.436115 -0.0503901 0)
(0.336973 -0.101412 0)
)
;

boundaryField
{
    movingWall
    {
        type            fixedValue;
        value           uniform (1 0 0);
    }
    fixedWalls
    {
        type            noSlip;
    }
    frontAndBack
    {
        type            empty;
    }
}


// ************************************************************************* //
