/*--------------------------------*- C++ -*----------------------------------*\
| =========                 |                                                 |
| \\      /  F ield         | OpenFOAM: The Open Source CFD Toolbox           |
|  \\    /   O peration     | Version:  2212                                  |
|   \\  /    A nd           | Website:  www.openfoam.com                      |
|    \\/     M anipulation  |                                                 |
\*---------------------------------------------------------------------------*/
FoamFile
{
    version     2.0;
    format      ascii;
    arch        "LSB;label=32;scalar=64";
    class       volScalarField;
    location    "4.235";
    object      p;
}
// * * * * * * * * * * * * * * * * * * * * * * * * * * * * * * * * * * * * * //

dimensions      [0 2 -2 0 0 0 0];

internalField   nonuniform List<scalar> 
400
(
9.536e-07
-0.00582836
-0.0129667
-0.0184193
-0.020437
-0.0182434
-0.0117789
-0.00148871
0.0118325
0.0271444
0.0432398
0.0588186
0.0725743
0.0833041
0.0900485
0.0922626
0.0900215
0.0842395
0.0768763
0.0710627
0.00577771
-0.000221857
-0.00580797
-0.00954683
-0.0106035
-0.00843739
-0.00297475
0.00546924
0.016298
0.0287069
0.0417451
0.0543814
0.065582
0.0744056
0.0801159
0.0823114
0.0810728
0.0770504
0.0712696
0.0653133
0.0133315
0.00502985
-0.000999382
-0.00442739
-0.00527738
-0.00326853
0.00159761
0.00902274
0.0184972
0.0293444
0.0407607
0.051865
0.061764
0.069632
0.0748026
0.0768736
0.0758371
0.0720813
0.0658008
0.0575308
0.0201358
0.00869206
0.00122174
-0.00267284
-0.00372657
-0.00188988
0.0027266
0.00977979
0.0187755
0.0290901
0.0399871
0.0506493
0.0602283
0.0679114
0.0729987
0.074997
0.0737612
0.0694514
0.0615982
0.0500977
0.0244983
0.0097692
0.000585662
-0.00399121
-0.00530668
-0.00351189
0.00117009
0.00832983
0.0174572
0.0279442
0.0390801
0.0500651
0.0600441
0.0681604
0.0736218
0.0757931
0.0743643
0.0692851
0.0595207
0.0445322
0.0251741
0.00714611
-0.00380611
-0.00906146
-0.0105166
-0.0085045
-0.00336142
0.00442475
0.0143086
0.0256742
0.0378089
0.0498984
0.0610433
0.0702984
0.0767299
0.0795122
0.0781342
0.0723288
0.0605344
0.041885
0.0210896
-0.000266353
-0.0129386
-0.0187135
-0.0200342
-0.0174184
-0.0113229
-0.00232432
0.00898575
0.0219715
0.0359049
0.0499395
0.0631073
0.0743405
0.0825171
0.0865647
0.085716
0.0794423
0.0656156
0.0430668
0.0111387
-0.0136223
-0.0278792
-0.0338584
-0.0346078
-0.0308619
-0.0232174
-0.0123498
0.00110022
0.0164792
0.0330478
0.0499289
0.0660786
0.0802851
0.0911959
0.0974253
0.0978655
0.0916313
0.0758915
0.0491117
-0.0059714
-0.0342707
-0.0498743
-0.0555528
-0.0550944
-0.0495189
-0.0395979
-0.0261178
-0.0097617
0.00881838
0.0288964
0.0495888
0.0697928
0.0881498
0.103043
0.112696
0.115546
0.110187
0.0928296
0.0614067
-0.0318615
-0.0638805
-0.0804213
-0.0850115
-0.0824244
-0.0740826
-0.0609853
-0.0440411
-0.0239561
-0.00134148
0.023141
0.0486564
0.074091
0.0979677
0.118391
0.133121
0.139984
0.136813
0.118436
0.0819292
-0.0686717
-0.104608
-0.121349
-0.123594
-0.11752
-0.105131
-0.0877226
-0.0663299
-0.0416415
-0.0141601
0.015601
0.0469487
0.0788513
0.109789
0.137619
0.159581
0.172722
0.173774
0.155516
0.113566
-0.119407
-0.159361
-0.174919
-0.172761
-0.161152
-0.142933
-0.119763
-0.0927813
-0.0625817
-0.029452
0.00636872
0.0444691
0.0840507
0.123699
0.161132
0.193082
0.215664
0.224073
0.208046
0.160628
-0.188633
-0.232246
-0.243943
-0.233952
-0.213698
-0.187158
-0.156376
-0.122505
-0.085902
-0.0464763
-0.00401861
0.0415347
0.089838
0.139825
0.189315
0.234685
0.27107
0.29166
0.281739
0.229772
-0.283978
-0.329308
-0.331835
-0.308284
-0.274712
-0.236444
-0.195768
-0.153614
-0.109844
-0.0637489
-0.0144416
0.0388596
0.0965505
0.158273
0.22237
0.285284
0.341393
0.381571
0.38491
0.33183
-0.419322
-0.459674
-0.442354
-0.395795
-0.342132
-0.287743
-0.234619
-0.182933
-0.131613
-0.0789882
-0.0232172
0.037472
0.10455
0.178834
0.259858
0.344967
0.428613
0.499697
0.529672
0.485388
-0.620535
-0.636747
-0.57868
-0.494196
-0.411243
-0.335661
-0.267783
-0.20598
-0.147539
-0.0893857
-0.0284288
0.0383456
0.113804
0.200469
0.299972
0.412022
0.533027
0.651772
0.732769
0.722393
-0.935926
-0.878517
-0.741744
-0.597951
-0.474395
-0.372661
-0.288871
-0.217765
-0.153956
-0.0924662
-0.0287196
0.0416933
0.123261
0.220716
0.338924
0.482152
0.651994
0.841339
1.01527
1.0975
-1.47643
-1.20663
-0.920505
-0.69139
-0.517307
-0.387546
-0.290063
-0.213339
-0.148126
-0.0872176
-0.0245798
0.0454553
0.128935
0.233069
0.367101
0.542676
0.771291
1.05932
1.40328
1.73014
-2.53965
-1.63055
-1.04444
-0.710961
-0.495752
-0.352095
-0.254533
-0.183585
-0.126171
-0.0735972
-0.0192712
0.0427847
0.11921
0.21878
0.35481
0.547982
0.826391
1.23658
1.91167
2.92419
-4.36667
-2.04464
-0.973544
-0.563182
-0.357848
-0.240148
-0.170121
-0.123785
-0.0874832
-0.0535123
-0.0166566
0.0276584
0.0846052
0.161727
0.272409
0.442097
0.718217
1.22571
2.41103
4.84853
)
;

boundaryField
{
    movingWall
    {
        type            zeroGradient;
    }
    fixedWalls
    {
        type            zeroGradient;
    }
    frontAndBack
    {
        type            empty;
    }
}


// ************************************************************************* //
