/*--------------------------------*- C++ -*----------------------------------*\
| =========                 |                                                 |
| \\      /  F ield         | OpenFOAM: The Open Source CFD Toolbox           |
|  \\    /   O peration     | Version:  2212                                  |
|   \\  /    A nd           | Website:  www.openfoam.com                      |
|    \\/     M anipulation  |                                                 |
\*---------------------------------------------------------------------------*/
FoamFile
{
    version     2.0;
    format      ascii;
    arch        "LSB;label=32;scalar=64";
    class       volScalarField;
    location    "1.61";
    object      p;
}
// * * * * * * * * * * * * * * * * * * * * * * * * * * * * * * * * * * * * * //

dimensions      [0 2 -2 0 0 0 0];

internalField   nonuniform List<scalar> 
400
(
2.72817e-06
-0.00582534
-0.0129635
-0.018416
-0.0204337
-0.0182401
-0.0117755
-0.00148527
0.0118359
0.0271478
0.0432431
0.0588218
0.0725776
0.0833075
0.0900519
0.0922661
0.0900249
0.0842429
0.0768796
0.071066
0.00578072
-0.000218626
-0.00580467
-0.00954352
-0.0106002
-0.00843411
-0.00297144
0.00547262
0.0163014
0.0287103
0.0417485
0.0543848
0.0655853
0.0744089
0.0801193
0.0823148
0.0810763
0.0770538
0.071273
0.0653167
0.0133348
0.00503314
-0.000996043
-0.00442403
-0.00527404
-0.00326524
0.00160088
0.00902605
0.0185005
0.0293478
0.0407641
0.0518684
0.0617674
0.0696352
0.0748059
0.076877
0.0758405
0.0720847
0.0658043
0.0575342
0.020139
0.00869536
0.00122509
-0.00266944
-0.00372318
-0.00188654
0.00272988
0.00978304
0.0187788
0.0290935
0.0399906
0.0506527
0.0602317
0.0679148
0.073002
0.0750003
0.0737646
0.0694548
0.0616016
0.0501011
0.0245016
0.00977249
0.000588975
-0.00398783
-0.00530325
-0.00350848
0.00117344
0.0083331
0.0174604
0.0279475
0.0390835
0.0500685
0.0600476
0.0681638
0.0736251
0.0757964
0.0743676
0.0692884
0.0595241
0.0445356
0.0251775
0.00714941
-0.00380283
-0.00905813
-0.0105131
-0.00850105
-0.00335799
0.0044281
0.0143119
0.0256775
0.0378122
0.0499018
0.0610467
0.0703018
0.0767333
0.0795156
0.0781375
0.0723321
0.0605378
0.0418884
0.021093
-0.000263009
-0.0129353
-0.0187103
-0.0200308
-0.017415
-0.0113195
-0.00232089
0.0089891
0.0219747
0.0359081
0.0499428
0.0631107
0.0743439
0.0825205
0.0865682
0.0857193
0.0794457
0.0656189
0.0430701
0.0111422
-0.0136189
-0.0278759
-0.0338552
-0.0346045
-0.0308585
-0.0232139
-0.0123463
0.00110366
0.0164826
0.0330511
0.0499321
0.0660819
0.0802885
0.0911993
0.0974287
0.097869
0.0916347
0.0758949
0.049115
-0.00596798
-0.0342673
-0.0498709
-0.0555495
-0.0550911
-0.0495157
-0.0395946
-0.0261144
-0.00975822
0.00882182
0.0288997
0.0495921
0.0697961
0.0881531
0.103046
0.1127
0.115549
0.110191
0.0928329
0.06141
-0.0318581
-0.0638771
-0.0804178
-0.0850081
-0.0824211
-0.0740794
-0.060982
-0.0440377
-0.0239526
-0.00133802
0.0231444
0.0486598
0.0740943
0.0979709
0.118395
0.133124
0.139987
0.136817
0.11844
0.0819325
-0.0686684
-0.104604
-0.121345
-0.123591
-0.117516
-0.105128
-0.0877193
-0.0663266
-0.0416381
-0.0141567
0.0156045
0.0469521
0.0788546
0.109792
0.137623
0.159584
0.172726
0.173777
0.155519
0.11357
-0.119403
-0.159358
-0.174916
-0.172758
-0.161149
-0.14293
-0.11976
-0.092778
-0.0625785
-0.0294487
0.00637212
0.0444725
0.0840542
0.123702
0.161135
0.193085
0.215667
0.224076
0.20805
0.160632
-0.188629
-0.232243
-0.243939
-0.233949
-0.213695
-0.187155
-0.156373
-0.122502
-0.0858987
-0.046473
-0.00401528
0.041538
0.0898414
0.139829
0.189318
0.234689
0.271074
0.291664
0.281742
0.229775
-0.283975
-0.329305
-0.331832
-0.30828
-0.274709
-0.23644
-0.195765
-0.15361
-0.10984
-0.0637456
-0.0144383
0.038863
0.0965538
0.158276
0.222374
0.285288
0.341397
0.381575
0.384914
0.331834
-0.419319
-0.459671
-0.44235
-0.395792
-0.342129
-0.287739
-0.234616
-0.18293
-0.131609
-0.0789848
-0.0232139
0.0374753
0.104553
0.178838
0.259861
0.34497
0.428616
0.4997
0.529675
0.485391
-0.620531
-0.636743
-0.578677
-0.494192
-0.41124
-0.335658
-0.26778
-0.205977
-0.147536
-0.0893823
-0.0284254
0.0383489
0.113807
0.200472
0.299976
0.412026
0.53303
0.651776
0.732772
0.722396
-0.935923
-0.878514
-0.74174
-0.597947
-0.474392
-0.372658
-0.288867
-0.217762
-0.153952
-0.0924628
-0.0287162
0.0416967
0.123264
0.220719
0.338927
0.482156
0.651998
0.841343
1.01527
1.0975
-1.47642
-1.20663
-0.920502
-0.691386
-0.517303
-0.387542
-0.29006
-0.213336
-0.148123
-0.0872142
-0.0245764
0.0454587
0.128939
0.233072
0.367104
0.542679
0.771294
1.05932
1.40329
1.73014
-2.53965
-1.63055
-1.04444
-0.710957
-0.495749
-0.352092
-0.254529
-0.183582
-0.126168
-0.0735939
-0.0192678
0.042788
0.119213
0.218784
0.354813
0.547985
0.826394
1.23658
1.91168
2.92419
-4.36666
-2.04463
-0.973541
-0.563179
-0.357845
-0.240145
-0.170118
-0.123781
-0.0874799
-0.053509
-0.0166533
0.0276617
0.0846085
0.161731
0.272412
0.4421
0.71822
1.22571
2.41104
4.84853
)
;

boundaryField
{
    movingWall
    {
        type            zeroGradient;
    }
    fixedWalls
    {
        type            zeroGradient;
    }
    frontAndBack
    {
        type            empty;
    }
}


// ************************************************************************* //
