/*--------------------------------*- C++ -*----------------------------------*\
| =========                 |                                                 |
| \\      /  F ield         | OpenFOAM: The Open Source CFD Toolbox           |
|  \\    /   O peration     | Version:  2212                                  |
|   \\  /    A nd           | Website:  www.openfoam.com                      |
|    \\/     M anipulation  |                                                 |
\*---------------------------------------------------------------------------*/
FoamFile
{
    version     2.0;
    format      ascii;
    arch        "LSB;label=32;scalar=64";
    class       volScalarField;
    location    "1.475";
    object      p;
}
// * * * * * * * * * * * * * * * * * * * * * * * * * * * * * * * * * * * * * //

dimensions      [0 2 -2 0 0 0 0];

internalField   nonuniform List<scalar> 
400
(
-3.13497e-09
-0.000106219
-0.000287328
-0.000544135
-0.000858664
-0.00120011
-0.00150261
-0.0016559
-0.00152111
-0.000973046
5.70681e-05
0.00155022
0.00335734
0.00497311
0.00588259
0.00581418
0.00479712
0.0036655
0.00291541
0.00278633
0.00010334
2.56612e-06
-0.000144815
-0.000346177
-0.000596866
-0.000886461
-0.00119625
-0.0014668
-0.00156604
-0.00130518
-0.00051324
0.000851474
0.00254891
0.00415578
0.00513677
0.00516315
0.00433956
0.00321089
0.00259588
0.00255111
0.000310742
0.000149159
-4.96982e-06
-0.000231514
-0.000570494
-0.00106092
-0.00171818
-0.00246817
-0.00310831
-0.00333667
-0.00287244
-0.00165377
8.87516e-05
0.00195717
0.00340012
0.00394911
0.00354581
0.00266748
0.00190042
0.00178029
0.000437521
0.000231509
3.18663e-05
-0.00032289
-0.000945834
-0.00194409
-0.00334673
-0.00500549
-0.00657638
-0.00761122
-0.0077387
-0.00687651
-0.00519706
-0.00298174
-0.000706168
0.00105938
0.00188959
0.00178217
0.00112986
0.000572529
0.000344203
7.96082e-05
-0.000229772
-0.000855216
-0.00201081
-0.00386545
-0.00639683
-0.00929526
-0.0120347
-0.0140643
-0.0149923
-0.0146762
-0.0131805
-0.0106866
-0.00753488
-0.00424584
-0.00149457
9.26999e-05
0.00028417
-0.00115939
-0.000150274
-0.000489328
-0.000985448
-0.00203077
-0.00394112
-0.00689909
-0.0107492
-0.0149419
-0.0187636
-0.0216342
-0.023228
-0.023403
-0.0221547
-0.0196417
-0.0160406
-0.0116013
-0.00688105
-0.00300746
-0.00143387
-0.00331402
-0.00115748
-0.00158505
-0.00232971
-0.00388785
-0.00664282
-0.0107188
-0.0157612
-0.0209642
-0.0254852
-0.0287822
-0.0306316
-0.0309957
-0.0299371
-0.0276171
-0.0241131
-0.0193765
-0.0135349
-0.00764611
-0.00425171
-0.00486229
-0.00266881
-0.00318492
-0.00419482
-0.00625482
-0.00976103
-0.0147393
-0.0206378
-0.0264523
-0.031298
-0.0347178
-0.0365899
-0.0369561
-0.035955
-0.0337797
-0.0305389
-0.0260902
-0.0201668
-0.0132099
-0.00762809
-0.00527498
-0.004541
-0.00512033
-0.00635695
-0.00880897
-0.0128425
-0.0183997
-0.0247955
-0.0309148
-0.0358889
-0.0393406
-0.0411984
-0.0415213
-0.0404691
-0.038281
-0.0351873
-0.0311573
-0.0257599
-0.0187533
-0.0115643
-0.00655832
-0.0065445
-0.00712984
-0.00851366
-0.0111879
-0.0154751
-0.0212835
-0.0278865
-0.034134
-0.039184
-0.0426931
-0.0445846
-0.0448851
-0.0437315
-0.0413976
-0.0382535
-0.0344847
-0.0297763
-0.0234413
-0.0160644
-0.00955606
-0.00843629
-0.00896153
-0.010386
-0.0130902
-0.017363
-0.0231296
-0.0297054
-0.0359661
-0.041082
-0.0446858
-0.0466531
-0.0469587
-0.0456879
-0.0431454
-0.0398233
-0.0361356
-0.0320392
-0.0266494
-0.0200629
-0.0132059
-0.0100199
-0.0104336
-0.0117756
-0.0143131
-0.0183274
-0.0237885
-0.0301105
-0.0362644
-0.041416
-0.0451187
-0.0471694
-0.0474998
-0.0461184
-0.0433893
-0.0398748
-0.0361677
-0.0325703
-0.0280474
-0.0224552
-0.0157554
-0.0112227
-0.0114627
-0.0125737
-0.0147598
-0.0182931
-0.0232092
-0.0290621
-0.0349679
-0.0400827
-0.0438534
-0.0459786
-0.0463381
-0.044931
-0.0421025
-0.038466
-0.0346896
-0.0314911
-0.0275512
-0.0227935
-0.0162223
-0.0120404
-0.0120676
-0.0127951
-0.0144254
-0.0172614
-0.021434
-0.0266467
-0.0321639
-0.0371461
-0.0409402
-0.0431398
-0.0435617
-0.0422361
-0.0394301
-0.0357902
-0.0320611
-0.0289769
-0.0253697
-0.0214438
-0.0144955
-0.0125175
-0.012323
-0.0125343
-0.0134397
-0.0154339
-0.0187391
-0.0231948
-0.0282061
-0.0329651
-0.0367462
-0.0390488
-0.0396214
-0.0384613
-0.035801
-0.0322803
-0.0286298
-0.0255523
-0.0220804
-0.0193326
-0.0106978
-0.012755
-0.0123502
-0.0118651
-0.0119089
-0.0130204
-0.0154695
-0.0191773
-0.023659
-0.028163
-0.0319284
-0.0343792
-0.0351863
-0.0343124
-0.0319152
-0.0285883
-0.0249932
-0.0218107
-0.018295
-0.0165859
-0.00356522
-0.0128179
-0.0122665
-0.0109308
-0.0100708
-0.0103647
-0.012099
-0.0152096
-0.0192637
-0.0235706
-0.0273652
-0.0300242
-0.0311297
-0.0305906
-0.0285557
-0.0254247
-0.0217298
-0.0180773
-0.0138931
-0.0102741
0.0121976
-0.0137052
-0.0122321
-0.00957547
-0.0078309
-0.00753629
-0.00885212
-0.0116497
-0.0154956
-0.01976
-0.023686
-0.0266473
-0.0281495
-0.0280354
-0.0262913
-0.0232317
-0.019035
-0.0139427
-0.00614503
0.00781611
0.0490318
-0.0118903
-0.0127224
-0.00873462
-0.00598662
-0.00520743
-0.00633722
-0.00907023
-0.0129139
-0.0172906
-0.0214308
-0.0247431
-0.0266565
-0.0269811
-0.0254855
-0.0221998
-0.0164533
-0.006998
0.0115899
0.0488906
0.119385
-0.0294976
-0.0124676
-0.00487953
-0.00234262
-0.00216834
-0.00364668
-0.00660591
-0.0106431
-0.0152143
-0.0195599
-0.0231043
-0.0252872
-0.0258905
-0.0245104
-0.0205933
-0.0120761
0.00532801
0.0423226
0.111836
0.216048
)
;

boundaryField
{
    movingWall
    {
        type            zeroGradient;
    }
    fixedWalls
    {
        type            zeroGradient;
    }
    frontAndBack
    {
        type            empty;
    }
}


// ************************************************************************* //
