/*--------------------------------*- C++ -*----------------------------------*\
| =========                 |                                                 |
| \\      /  F ield         | OpenFOAM: The Open Source CFD Toolbox           |
|  \\    /   O peration     | Version:  2212                                  |
|   \\  /    A nd           | Website:  www.openfoam.com                      |
|    \\/     M anipulation  |                                                 |
\*---------------------------------------------------------------------------*/
FoamFile
{
    version     2.0;
    format      ascii;
    arch        "LSB;label=32;scalar=64";
    class       volScalarField;
    location    "4.935";
    object      p;
}
// * * * * * * * * * * * * * * * * * * * * * * * * * * * * * * * * * * * * * //

dimensions      [0 2 -2 0 0 0 0];

internalField   nonuniform List<scalar> 
400
(
3.21732e-08
-0.000150474
-0.000532987
-0.00106827
-0.00172676
-0.00248528
-0.00317395
-0.00358509
-0.00355246
-0.00292212
-0.00153958
0.000623437
0.00325002
0.00551598
0.00654437
0.0059479
0.00404006
0.00219449
0.00115637
0.001086
0.000116222
-5.76037e-05
-0.000375141
-0.000761112
-0.00123974
-0.00188154
-0.00269598
-0.00352912
-0.00406259
-0.00392078
-0.00283183
-0.000815226
0.00169517
0.00396788
0.00513987
0.00477156
0.00314533
0.0014216
0.000640387
0.000729224
0.000534589
0.000264582
-7.6201e-05
-0.000556947
-0.00134158
-0.00256917
-0.00419927
-0.0059544
-0.00736557
-0.00790416
-0.00722732
-0.00543047
-0.00286576
-0.000171182
0.00181862
0.0024631
0.00175408
0.000551852
-0.000345837
-0.000345182
0.00114624
0.000737314
0.000190872
-0.000771073
-0.0024386
-0.00491157
-0.00795165
-0.0110593
-0.0136278
-0.0150939
-0.0151241
-0.013763
-0.0112261
-0.00797102
-0.00470046
-0.00216018
-0.000820574
-0.000655857
-0.00123757
-0.00186806
0.00157091
0.000964735
-2.54687e-05
-0.00191498
-0.0049787
-0.00912678
-0.0138318
-0.0183701
-0.022084
-0.0245067
-0.0253786
-0.0245795
-0.0222345
-0.0186327
-0.0142121
-0.00957946
-0.005529
-0.0028951
-0.00214394
-0.00396411
0.00127655
0.000433477
-0.00119728
-0.004283
-0.00895228
-0.0147895
-0.0209413
-0.0265462
-0.0309914
-0.0339584
-0.0353179
-0.034969
-0.032995
-0.0295429
-0.0247532
-0.0188447
-0.0124171
-0.00688296
-0.00434701
-0.00646414
-6.40343e-05
-0.00115597
-0.00349011
-0.00775584
-0.0138477
-0.0209791
-0.0280499
-0.0341743
-0.0388561
-0.0419326
-0.0434094
-0.0433065
-0.0416906
-0.0386301
-0.0341025
-0.0279913
-0.0204145
-0.0126152
-0.00779129
-0.00769367
-0.00245798
-0.00374057
-0.00667344
-0.0118474
-0.0189193
-0.0268008
-0.0342625
-0.040481
-0.0451047
-0.0480965
-0.0495432
-0.0495394
-0.0481635
-0.0454625
-0.0413876
-0.0357062
-0.0281576
-0.019252
-0.0117446
-0.0079293
-0.0055311
-0.00689836
-0.0102189
-0.0159292
-0.0235028
-0.0316654
-0.0391583
-0.0452548
-0.0497228
-0.052601
-0.054009
-0.0540522
-0.0528052
-0.0503257
-0.0466227
-0.0415379
-0.0346556
-0.0257927
-0.0166059
-0.00992816
-0.00871142
-0.0100526
-0.0135335
-0.0194256
-0.0271015
-0.0352276
-0.0425772
-0.0485028
-0.0528393
-0.0556496
-0.0570484
-0.0571214
-0.0559318
-0.0535507
-0.0500585
-0.0454418
-0.0393851
-0.0313369
-0.0221875
-0.0142429
-0.0114687
-0.0127112
-0.0161403
-0.021921
-0.0294028
-0.0373062
-0.0444646
-0.050261
-0.0545373
-0.0573376
-0.0587527
-0.0588452
-0.0576658
-0.055291
-0.0518616
-0.0475068
-0.042161
-0.0351765
-0.0270427
-0.0190556
-0.0135064
-0.0145644
-0.0177697
-0.0231758
-0.0302209
-0.0377741
-0.0447485
-0.0505026
-0.0548135
-0.0576728
-0.0591324
-0.0592358
-0.0580245
-0.0555764
-0.0520844
-0.0477902
-0.0429375
-0.0368514
-0.0298734
-0.0222835
-0.0147923
-0.0155131
-0.0182677
-0.0230764
-0.029493
-0.0366025
-0.0434095
-0.0492085
-0.0536555
-0.0566503
-0.0581918
-0.0583004
-0.057013
-0.0544295
-0.0507679
-0.0463323
-0.0417218
-0.0361201
-0.0300855
-0.022775
-0.0154242
-0.0156727
-0.0177041
-0.0216303
-0.0272144
-0.0337861
-0.0404303
-0.0463469
-0.051034
-0.0542598
-0.0559474
-0.0560898
-0.0547014
-0.0519125
-0.0479842
-0.0433067
-0.0385376
-0.0330097
-0.0279951
-0.0201955
-0.0155344
-0.0152573
-0.0162821
-0.0189998
-0.0235164
-0.0294356
-0.035904
-0.0419987
-0.0470281
-0.0505926
-0.052509
-0.0527162
-0.0512553
-0.0482162
-0.0439316
-0.0388469
-0.0336573
-0.0280069
-0.0241829
-0.0143602
-0.0152424
-0.014519
-0.0142251
-0.0153724
-0.0185961
-0.0237544
-0.0300288
-0.0363466
-0.0418097
-0.0458274
-0.0480917
-0.0484722
-0.0469919
-0.0437209
-0.0390302
-0.0333898
-0.027594
-0.0216394
-0.018091
-0.00387905
-0.0146353
-0.0135971
-0.0116924
-0.0110649
-0.0129168
-0.0173027
-0.0234007
-0.0299751
-0.0359395
-0.0405123
-0.0432549
-0.0439402
-0.0425605
-0.0391479
-0.0340387
-0.0276347
-0.0207125
-0.0133698
-0.0069156
0.0159383
-0.0145684
-0.0126473
-0.00865465
-0.00625406
-0.00692166
-0.0107261
-0.0167482
-0.0236113
-0.0301124
-0.0353072
-0.0386458
-0.0397783
-0.0386509
-0.0352774
-0.0298047
-0.0222787
-0.0129688
-0.000857152
0.0164923
0.0568954
-0.0117919
-0.0118342
-0.00575549
-0.00182549
-0.0018138
-0.00542775
-0.0115518
-0.0187341
-0.025737
-0.0315018
-0.0354483
-0.0371443
-0.0364917
-0.0332148
-0.0271641
-0.0175766
-0.00328025
0.020283
0.060475
0.129635
-0.0295092
-0.0106416
-0.000651798
0.00301619
0.00238363
-0.00159735
-0.00799485
-0.015492
-0.0228568
-0.029006
-0.0333336
-0.0353836
-0.0350183
-0.0318224
-0.0251669
-0.0128874
0.00930082
0.050981
0.122674
0.22591
)
;

boundaryField
{
    movingWall
    {
        type            zeroGradient;
    }
    fixedWalls
    {
        type            zeroGradient;
    }
    frontAndBack
    {
        type            empty;
    }
}


// ************************************************************************* //
