/*--------------------------------*- C++ -*----------------------------------*\
| =========                 |                                                 |
| \\      /  F ield         | OpenFOAM: The Open Source CFD Toolbox           |
|  \\    /   O peration     | Version:  2212                                  |
|   \\  /    A nd           | Website:  www.openfoam.com                      |
|    \\/     M anipulation  |                                                 |
\*---------------------------------------------------------------------------*/
FoamFile
{
    version     2.0;
    format      ascii;
    arch        "LSB;label=32;scalar=64";
    class       volVectorField;
    location    "2.73";
    object      U;
}
// * * * * * * * * * * * * * * * * * * * * * * * * * * * * * * * * * * * * * //

dimensions      [0 1 -1 0 0 0 0];

internalField   nonuniform List<vector> 
400
(
(0.0015076 -0.0015368 0)
(0.00429047 -0.00170878 0)
(0.00575588 -0.00109942 0)
(0.00478223 -0.000505338 0)
(0.000821539 0.000244113 0)
(-0.00715367 0.0017102 0)
(-0.0201377 0.00447294 0)
(-0.0379549 0.00807231 0)
(-0.0580993 0.0105372 0)
(-0.0757572 0.0100068 0)
(-0.0863842 0.00661382 0)
(-0.0874984 0.00178333 0)
(-0.0781569 -0.00328067 0)
(-0.059035 -0.00781359 0)
(-0.0337186 -0.0103707 0)
(-0.00648194 -0.00945606 0)
(0.0149629 -0.00481003 0)
(0.022831 0.00246859 0)
(0.015349 0.00608969 0)
(0.00415714 0.00449132 0)
(0.00142391 -0.00443814 0)
(0.00237135 -0.00338482 0)
(-0.00136975 0.000810404 0)
(-0.0118184 0.0062323 0)
(-0.0307365 0.0133094 0)
(-0.0586464 0.0223213 0)
(-0.0924522 0.0310725 0)
(-0.125732 0.0352138 0)
(-0.152603 0.0322649 0)
(-0.169678 0.0229463 0)
(-0.175433 0.00940908 0)
(-0.169765 -0.00606061 0)
(-0.153239 -0.0217194 0)
(-0.126482 -0.0351652 0)
(-0.0917051 -0.0428168 0)
(-0.0516066 -0.0405021 0)
(-0.0119645 -0.025902 0)
(0.0155624 -0.00190859 0)
(0.0169621 0.0152005 0)
(0.00536303 0.0141351 0)
(-0.000474659 -0.00467225 0)
(-0.0057257 0.00165075 0)
(-0.0194169 0.0139333 0)
(-0.0428973 0.029533 0)
(-0.0766074 0.0465801 0)
(-0.116397 0.0608901 0)
(-0.155136 0.0673741 0)
(-0.187323 0.0636986 0)
(-0.210649 0.0509308 0)
(-0.224415 0.0313875 0)
(-0.228551 0.00733766 0)
(-0.223619 -0.0192133 0)
(-0.20992 -0.0461591 0)
(-0.18698 -0.07 0)
(-0.154522 -0.0857303 0)
(-0.112557 -0.086469 0)
(-0.0629404 -0.0655376 0)
(-0.0138618 -0.0231168 0)
(0.00906072 0.0164731 0)
(0.00413951 0.0225587 0)
(-0.00338423 0.0015701 0)
(-0.0168256 0.0173854 0)
(-0.0414963 0.0395392 0)
(-0.0756188 0.0643949 0)
(-0.116734 0.0863948 0)
(-0.158125 0.0991905 0)
(-0.193467 0.0991547 0)
(-0.220485 0.0871437 0)
(-0.239288 0.0660939 0)
(-0.250408 0.038642 0)
(-0.254619 0.00665614 0)
(-0.252693 -0.0285449 0)
(-0.244585 -0.0648463 0)
(-0.229257 -0.0993538 0)
(-0.204759 -0.126763 0)
(-0.168446 -0.138454 0)
(-0.117942 -0.122519 0)
(-0.0552999 -0.069817 0)
(-0.00115486 0.00225224 0)
(0.00471466 0.0270688 0)
(-0.0062896 0.0151892 0)
(-0.027086 0.0427488 0)
(-0.0597375 0.0731716 0)
(-0.0987985 0.103256 0)
(-0.139966 0.125141 0)
(-0.176485 0.132861 0)
(-0.204603 0.125467 0)
(-0.224384 0.106121 0)
(-0.237028 0.0785802 0)
(-0.244164 0.0456073 0)
(-0.247472 0.00876247 0)
(-0.247918 -0.0311807 0)
(-0.245342 -0.0731366 0)
(-0.23909 -0.115795 0)
(-0.226435 -0.155317 0)
(-0.202789 -0.183399 0)
(-0.162288 -0.184981 0)
(-0.10048 -0.139658 0)
(-0.0216623 -0.0388924 0)
(0.00711405 0.0259232 0)
(-0.00795125 0.0339786 0)
(-0.0329691 0.0734556 0)
(-0.0688072 0.109199 0)
(-0.107171 0.140609 0)
(-0.143385 0.159137 0)
(-0.171992 0.160285 0)
(-0.191561 0.145601 0)
(-0.203407 0.119837 0)
(-0.209434 0.0873167 0)
(-0.212066 0.0510424 0)
(-0.213364 0.0125182 0)
(-0.21442 -0.0278787 0)
(-0.215484 -0.0706334 0)
(-0.216567 -0.116213 0)
(-0.215479 -0.163472 0)
(-0.20709 -0.20698 0)
(-0.183387 -0.232616 0)
(-0.135972 -0.213432 0)
(-0.0607038 -0.116189 0)
(0.00546418 0.0134523 0)
(-0.00771578 0.0546413 0)
(-0.0330537 0.105054 0)
(-0.0675933 0.143234 0)
(-0.10144 0.173079 0)
(-0.130493 0.186492 0)
(-0.150898 0.180641 0)
(-0.162884 0.159112 0)
(-0.168411 0.127824 0)
(-0.169821 0.0915964 0)
(-0.169657 0.0535267 0)
(-0.169591 0.0149233 0)
(-0.170402 -0.0241959 0)
(-0.172682 -0.0650351 0)
(-0.176981 -0.109076 0)
(-0.18259 -0.157564 0)
(-0.185745 -0.209362 0)
(-0.178443 -0.255332 0)
(-0.150738 -0.269199 0)
(-0.0964623 -0.201252 0)
(-0.00856468 -0.0147691 0)
(-0.00569891 0.0738485 0)
(-0.0278442 0.13405 0)
(-0.0578139 0.172775 0)
(-0.0852685 0.199484 0)
(-0.106974 0.207203 0)
(-0.120567 0.194642 0)
(-0.127239 0.16707 0)
(-0.129206 0.131331 0)
(-0.128899 0.0925553 0)
(-0.128388 0.0536194 0)
(-0.128505 0.0153524 0)
(-0.129479 -0.0226428 0)
(-0.131812 -0.0615071 0)
(-0.136278 -0.102701 0)
(-0.1435 -0.148457 0)
(-0.152048 -0.201288 0)
(-0.155693 -0.259031 0)
(-0.143989 -0.301661 0)
(-0.109817 -0.271476 0)
(-0.0298457 -0.0733035 0)
(-0.00252817 0.0887399 0)
(-0.019056 0.157857 0)
(-0.0424947 0.196247 0)
(-0.062981 0.219213 0)
(-0.078094 0.22161 0)
(-0.0866232 0.203508 0)
(-0.0901654 0.171366 0)
(-0.090824 0.13263 0)
(-0.0907183 0.0925247 0)
(-0.0911583 0.0535133 0)
(-0.0922574 0.0157935 0)
(-0.0938986 -0.0214701 0)
(-0.0962768 -0.0591767 0)
(-0.0999931 -0.0981957 0)
(-0.106309 -0.140466 0)
(-0.115991 -0.19031 0)
(-0.125629 -0.252186 0)
(-0.124597 -0.316549 0)
(-0.105726 -0.328069 0)
(-0.0365005 -0.158617 0)
(0.00112723 0.0972009 0)
(-0.00832009 0.174782 0)
(-0.0241391 0.213163 0)
(-0.0376909 0.233 0)
(-0.047096 0.231363 0)
(-0.0519782 0.209325 0)
(-0.0538468 0.174139 0)
(-0.0543559 0.133672 0)
(-0.0550619 0.0931257 0)
(-0.0566127 0.0544482 0)
(-0.0587659 0.0172483 0)
(-0.0613055 -0.0196069 0)
(-0.0642168 -0.0568457 0)
(-0.0677683 -0.0947729 0)
(-0.0730505 -0.134357 0)
(-0.0818286 -0.179803 0)
(-0.0940807 -0.239904 0)
(-0.0996103 -0.3171 0)
(-0.094199 -0.365442 0)
(-0.0306005 -0.236872 0)
(0.00469813 0.0982299 0)
(0.00277456 0.183841 0)
(-0.00510448 0.223243 0)
(-0.0119923 0.240778 0)
(-0.0163573 0.236396 0)
(-0.0182447 0.212157 0)
(-0.0188829 0.175663 0)
(-0.0193341 0.1348 0)
(-0.0205577 0.0945417 0)
(-0.022772 0.0564478 0)
(-0.0256255 0.0198202 0)
(-0.0289737 -0.0165669 0)
(-0.0328032 -0.0534409 0)
(-0.037134 -0.0908599 0)
(-0.0426332 -0.128905 0)
(-0.0508034 -0.170535 0)
(-0.0645747 -0.226385 0)
(-0.0739589 -0.310367 0)
(-0.0808118 -0.389698 0)
(-0.0228562 -0.300938 0)
(0.00768147 0.0922057 0)
(0.0132011 0.184746 0)
(0.013154 0.22664 0)
(0.0127539 0.243463 0)
(0.0133252 0.238073 0)
(0.0145051 0.213338 0)
(0.0153601 0.176885 0)
(0.0153828 0.136429 0)
(0.014187 0.0967173 0)
(0.0118283 0.0592168 0)
(0.00864276 0.023248 0)
(0.00465694 -0.0123955 0)
(-0.000236937 -0.0485243 0)
(-0.00597257 -0.085219 0)
(-0.0129855 -0.122111 0)
(-0.0217082 -0.160632 0)
(-0.0375103 -0.210973 0)
(-0.0493058 -0.296551 0)
(-0.0680979 -0.401695 0)
(-0.0145944 -0.353852 0)
(0.00926432 0.0802885 0)
(0.0215934 0.177572 0)
(0.0289603 0.2229 0)
(0.0346707 0.240046 0)
(0.0401837 0.234837 0)
(0.0450753 0.211042 0)
(0.0484578 0.175958 0)
(0.0500281 0.136893 0)
(0.0497571 0.0983759 0)
(0.0478913 0.0619183 0)
(0.0447435 0.0270394 0)
(0.0402717 -0.00738447 0)
(0.0343039 -0.0421804 0)
(0.026874 -0.0775388 0)
(0.0172842 -0.113005 0)
(0.0064186 -0.149041 0)
(-0.0126635 -0.194466 0)
(-0.0255747 -0.278359 0)
(-0.0564892 -0.404418 0)
(-0.00640631 -0.39606 0)
(0.00876493 0.0646093 0)
(0.0265655 0.162788 0)
(0.0411723 0.212359 0)
(0.0532254 0.231485 0)
(0.064199 0.227971 0)
(0.0737175 0.206512 0)
(0.0808234 0.17394 0)
(0.0851406 0.137015 0)
(0.0867525 0.100124 0)
(0.0860064 0.0649802 0)
(0.0832554 0.0314867 0)
(0.0783998 -0.00131404 0)
(0.0712194 -0.0340562 0)
(0.0618945 -0.0672366 0)
(0.0492532 -0.100541 0)
(0.0348949 -0.133953 0)
(0.0111013 -0.174574 0)
(-0.00194607 -0.255307 0)
(-0.0458384 -0.400602 0)
(0.00235572 -0.431143 0)
(0.0061129 0.0485222 0)
(0.026594 0.142629 0)
(0.0471282 0.194671 0)
(0.065225 0.2152 0)
(0.0821722 0.213499 0)
(0.0975341 0.195133 0)
(0.10998 0.166283 0)
(0.118753 0.132873 0)
(0.123755 0.0989586 0)
(0.125272 0.0663547 0)
(0.1236 0.0353603 0)
(0.118843 0.00525725 0)
(0.110482 -0.0243483 0)
(0.0991221 -0.0541647 0)
(0.0827203 -0.0841556 0)
(0.0641767 -0.114953 0)
(0.0350273 -0.151808 0)
(0.0214456 -0.229637 0)
(-0.0357717 -0.393489 0)
(0.0128713 -0.460334 0)
(0.00206067 0.0352064 0)
(0.0211451 0.119629 0)
(0.0466027 0.172518 0)
(0.0710786 0.194578 0)
(0.0948461 0.194955 0)
(0.117079 0.180024 0)
(0.13608 0.155556 0)
(0.150575 0.126557 0)
(0.160111 0.0966096 0)
(0.164895 0.0674925 0)
(0.164913 0.0398449 0)
(0.16084 0.0133222 0)
(0.151377 -0.01239 0)
(0.138056 -0.0378978 0)
(0.117539 -0.0634847 0)
(0.0947694 -0.0907437 0)
(0.0600654 -0.124818 0)
(0.0442562 -0.201118 0)
(-0.0243783 -0.383101 0)
(0.0276718 -0.482705 0)
(-0.00323718 0.030291 0)
(0.00819836 0.0993729 0)
(0.0330225 0.142982 0)
(0.0632252 0.162429 0)
(0.0948054 0.163952 0)
(0.125463 0.152798 0)
(0.152657 0.133734 0)
(0.174623 0.110651 0)
(0.190313 0.0865397 0)
(0.199988 0.062947 0)
(0.202936 0.0406851 0)
(0.200717 0.01964 0)
(0.190918 -0.000419075 0)
(0.176766 -0.020043 0)
(0.152885 -0.0396163 0)
(0.127294 -0.062327 0)
(0.0873732 -0.0954022 0)
(0.0669123 -0.174699 0)
(-0.00610779 -0.367438 0)
(0.0512917 -0.490053 0)
(-0.0127778 0.0202358 0)
(-0.0076435 0.0880469 0)
(0.016273 0.121139 0)
(0.0512289 0.132626 0)
(0.0903262 0.131876 0)
(0.128965 0.123206 0)
(0.163888 0.109434 0)
(0.19273 0.0926183 0)
(0.214059 0.0750873 0)
(0.228728 0.0577877 0)
(0.234814 0.0417643 0)
(0.235819 0.0268297 0)
(0.22715 0.0133237 0)
(0.215884 0.000229807 0)
(0.192171 -0.012971 0)
(0.169723 -0.0313173 0)
(0.127393 -0.0636573 0)
(0.10439 -0.143245 0)
(0.0358286 -0.325558 0)
(0.0917367 -0.455479 0)
(-0.105246 0.0836291 0)
(-0.0773633 0.0696472 0)
(-0.0494895 0.0719173 0)
(0.000861163 0.0753303 0)
(0.0521908 0.0752543 0)
(0.10291 0.0711424 0)
(0.148484 0.064278 0)
(0.189554 0.0554371 0)
(0.220966 0.0463731 0)
(0.248633 0.0372634 0)
(0.264452 0.0291617 0)
(0.279782 0.0216355 0)
(0.280878 0.0153751 0)
(0.285736 0.00935377 0)
(0.270936 0.00285027 0)
(0.265075 -0.00818313 0)
(0.22735 -0.0337687 0)
(0.215523 -0.0944482 0)
(0.149467 -0.229617 0)
(0.170531 -0.341507 0)
(0.130464 0.104199 0)
(0.159391 0.0762734 0)
(0.21376 0.0542985 0)
(0.271988 0.0423878 0)
(0.323662 0.0363416 0)
(0.37479 0.0321339 0)
(0.418106 0.028994 0)
(0.462254 0.0256272 0)
(0.494556 0.0229888 0)
(0.529271 0.019843 0)
(0.548558 0.0177575 0)
(0.574445 0.014873 0)
(0.58097 0.0135108 0)
(0.599868 0.0107423 0)
(0.592121 0.00984691 0)
(0.601533 0.00543722 0)
(0.566741 0.000501178 0)
(0.547658 -0.0180062 0)
(0.436473 -0.0503001 0)
(0.337213 -0.10139 0)
)
;

boundaryField
{
    movingWall
    {
        type            fixedValue;
        value           uniform (1 0 0);
    }
    fixedWalls
    {
        type            noSlip;
    }
    frontAndBack
    {
        type            empty;
    }
}


// ************************************************************************* //
