/*--------------------------------*- C++ -*----------------------------------*\
| =========                 |                                                 |
| \\      /  F ield         | OpenFOAM: The Open Source CFD Toolbox           |
|  \\    /   O peration     | Version:  2212                                  |
|   \\  /    A nd           | Website:  www.openfoam.com                      |
|    \\/     M anipulation  |                                                 |
\*---------------------------------------------------------------------------*/
FoamFile
{
    version     2.0;
    format      ascii;
    arch        "LSB;label=32;scalar=64";
    class       volScalarField;
    location    "1.14";
    object      p;
}
// * * * * * * * * * * * * * * * * * * * * * * * * * * * * * * * * * * * * * //

dimensions      [0 2 -2 0 0 0 0];

internalField   nonuniform List<scalar> 
400
(
3.33597e-06
-0.00582432
-0.0129623
-0.0184148
-0.0204325
-0.0182389
-0.0117743
-0.00148411
0.011837
0.0271489
0.0432442
0.058823
0.0725788
0.0833087
0.0900531
0.0922673
0.090026
0.084244
0.0768806
0.071067
0.00578176
-0.000217522
-0.00580356
-0.00954242
-0.010599
-0.00843295
-0.00297024
0.00547382
0.0163026
0.0287115
0.0417496
0.0543859
0.0655864
0.07441
0.0801205
0.082316
0.0810775
0.0770549
0.0712741
0.0653177
0.0133359
0.00503429
-0.000994904
-0.00442292
-0.00527295
-0.00326413
0.00160204
0.00902725
0.0185018
0.029349
0.0407652
0.0518695
0.0617684
0.0696364
0.0748071
0.0768782
0.0758417
0.0720859
0.0658054
0.0575353
0.0201402
0.00869652
0.00122627
-0.00266829
-0.00372207
-0.00188546
0.00273097
0.0097842
0.01878
0.0290948
0.0399918
0.0506539
0.0602328
0.0679159
0.0730031
0.0750014
0.0737658
0.069456
0.0616028
0.0501023
0.0245027
0.00977365
0.000590172
-0.00398663
-0.00530209
-0.00350738
0.0011745
0.00833419
0.0174616
0.0279487
0.0390847
0.0500697
0.0600487
0.0681649
0.0736262
0.0757975
0.0743688
0.0692896
0.0595253
0.0445368
0.0251786
0.00715054
-0.00380165
-0.00905691
-0.0105119
-0.00849989
-0.00335691
0.00442915
0.014313
0.0256786
0.0378135
0.0499031
0.0610479
0.070303
0.0767344
0.0795166
0.0781386
0.0723332
0.0605389
0.0418896
0.0210941
-0.000261911
-0.0129342
-0.0187091
-0.0200296
-0.0174137
-0.0113183
-0.0023198
0.00899015
0.0219758
0.0359093
0.049944
0.0631119
0.0743451
0.0825217
0.0865693
0.0857204
0.0794468
0.06562
0.0430713
0.0111433
-0.0136178
-0.0278748
-0.033854
-0.0346033
-0.0308573
-0.0232127
-0.0123451
0.00110474
0.0164836
0.0330522
0.0499333
0.0660831
0.0802897
0.0912006
0.0974299
0.0978701
0.0916358
0.075896
0.0491161
-0.00596676
-0.0342661
-0.0498698
-0.0555484
-0.05509
-0.0495144
-0.0395933
-0.0261132
-0.00975706
0.00882291
0.0289008
0.0495932
0.0697972
0.0881543
0.103047
0.112701
0.11555
0.110192
0.0928341
0.0614112
-0.0318569
-0.0638759
-0.0804167
-0.085007
-0.08242
-0.0740782
-0.0609808
-0.0440365
-0.0239514
-0.00133684
0.0231455
0.0486609
0.0740954
0.0979721
0.118396
0.133126
0.139989
0.136818
0.118441
0.0819337
-0.0686672
-0.104603
-0.121344
-0.12359
-0.117515
-0.105127
-0.0877182
-0.0663254
-0.0416369
-0.0141555
0.0156057
0.0469532
0.0788557
0.109793
0.137624
0.159586
0.172727
0.173778
0.155521
0.113571
-0.119402
-0.159357
-0.174915
-0.172757
-0.161148
-0.142929
-0.119759
-0.0927769
-0.0625773
-0.0294474
0.00637335
0.0444737
0.0840553
0.123703
0.161136
0.193086
0.215668
0.224077
0.208051
0.160633
-0.188628
-0.232242
-0.243938
-0.233947
-0.213694
-0.187154
-0.156372
-0.122501
-0.0858976
-0.0464718
-0.00401407
0.0415392
0.0898426
0.13983
0.189319
0.23469
0.271075
0.291665
0.281743
0.229776
-0.283974
-0.329304
-0.331831
-0.308279
-0.274708
-0.236439
-0.195764
-0.153609
-0.109839
-0.0637445
-0.0144372
0.0388642
0.096555
0.158277
0.222375
0.285289
0.341398
0.381576
0.384915
0.331835
-0.419318
-0.45967
-0.442349
-0.395791
-0.342128
-0.287738
-0.234614
-0.182928
-0.131608
-0.0789837
-0.0232128
0.0374765
0.104554
0.178839
0.259862
0.344971
0.428617
0.499701
0.529676
0.485393
-0.62053
-0.636742
-0.578675
-0.494191
-0.411239
-0.335656
-0.267778
-0.205976
-0.147535
-0.0893812
-0.0284243
0.03835
0.113809
0.200473
0.299977
0.412027
0.533031
0.651777
0.732773
0.722397
-0.935922
-0.878513
-0.741739
-0.597946
-0.474391
-0.372657
-0.288866
-0.21776
-0.153951
-0.0924616
-0.0287151
0.0416978
0.123266
0.22072
0.338928
0.482157
0.651999
0.841344
1.01527
1.09751
-1.47642
-1.20663
-0.920501
-0.691385
-0.517302
-0.387541
-0.290059
-0.213335
-0.148121
-0.0872131
-0.0245752
0.0454598
0.12894
0.233073
0.367105
0.54268
0.771295
1.05932
1.40329
1.73014
-2.53965
-1.63055
-1.04444
-0.710956
-0.495748
-0.35209
-0.254528
-0.183581
-0.126167
-0.0735927
-0.0192667
0.0427892
0.119215
0.218785
0.354814
0.547986
0.826395
1.23658
1.91168
2.9242
-4.36666
-2.04463
-0.973539
-0.563178
-0.357843
-0.240144
-0.170117
-0.12378
-0.0874788
-0.0535079
-0.0166522
0.0276629
0.0846097
0.161732
0.272413
0.442101
0.718221
1.22571
2.41104
4.84853
)
;

boundaryField
{
    movingWall
    {
        type            zeroGradient;
    }
    fixedWalls
    {
        type            zeroGradient;
    }
    frontAndBack
    {
        type            empty;
    }
}


// ************************************************************************* //
