/*--------------------------------*- C++ -*----------------------------------*\
| =========                 |                                                 |
| \\      /  F ield         | OpenFOAM: The Open Source CFD Toolbox           |
|  \\    /   O peration     | Version:  2212                                  |
|   \\  /    A nd           | Website:  www.openfoam.com                      |
|    \\/     M anipulation  |                                                 |
\*---------------------------------------------------------------------------*/
FoamFile
{
    version     2.0;
    format      ascii;
    arch        "LSB;label=32;scalar=64";
    class       volScalarField;
    location    "3.17";
    object      p;
}
// * * * * * * * * * * * * * * * * * * * * * * * * * * * * * * * * * * * * * //

dimensions      [0 2 -2 0 0 0 0];

internalField   nonuniform List<scalar> 
400
(
1.44992e-06
-0.00582753
-0.0129658
-0.0184183
-0.020436
-0.0182424
-0.011778
-0.00148776
0.0118334
0.0271453
0.0432407
0.0588195
0.0725753
0.0833052
0.0900495
0.0922636
0.0900224
0.0842404
0.0768771
0.0710636
0.00577856
-0.000220956
-0.00580707
-0.00954593
-0.0106025
-0.00843645
-0.00297377
0.00547023
0.016299
0.0287078
0.041746
0.0543823
0.0655829
0.0744065
0.0801169
0.0823124
0.0810738
0.0770513
0.0712705
0.0653142
0.0133325
0.00503079
-0.000998455
-0.00442649
-0.00527649
-0.00326763
0.00159856
0.00902373
0.0184982
0.0293454
0.0407616
0.0518659
0.0617649
0.0696329
0.0748036
0.0768746
0.0758381
0.0720823
0.0658018
0.0575317
0.0201367
0.00869302
0.00122271
-0.0026719
-0.00372568
-0.00188901
0.00272749
0.00978073
0.0187765
0.0290912
0.0399881
0.0506502
0.0602292
0.0679123
0.0729996
0.0749979
0.0737622
0.0694524
0.0615992
0.0500986
0.0244992
0.00977015
0.000586644
-0.00399023
-0.00530574
-0.00351101
0.00117095
0.00833072
0.0174581
0.0279452
0.0390811
0.0500661
0.0600451
0.0681613
0.0736226
0.075794
0.0743653
0.069286
0.0595217
0.0445331
0.025175
0.00714703
-0.00380514
-0.00906046
-0.0105156
-0.00850356
-0.00336054
0.0044256
0.0143095
0.0256752
0.0378099
0.0498995
0.0610443
0.0702993
0.0767308
0.0795131
0.0781351
0.0723297
0.0605354
0.041886
0.0210905
-0.000265461
-0.0129377
-0.0187126
-0.0200331
-0.0174174
-0.011322
-0.00232344
0.0089866
0.0219723
0.0359058
0.0499405
0.0631083
0.0743415
0.082518
0.0865656
0.0857169
0.0794432
0.0656165
0.0430678
0.0111397
-0.0136214
-0.0278783
-0.0338575
-0.0346068
-0.0308609
-0.0232164
-0.0123488
0.0011011
0.0164801
0.0330487
0.0499298
0.0660796
0.0802861
0.0911969
0.0974262
0.0978665
0.0916322
0.0758924
0.0491126
-0.0059704
-0.0342698
-0.0498734
-0.055552
-0.0550935
-0.0495179
-0.0395969
-0.0261168
-0.00976075
0.00881926
0.0288972
0.0495897
0.0697937
0.0881508
0.103044
0.112697
0.115547
0.110188
0.0928305
0.0614076
-0.0318605
-0.0638795
-0.0804204
-0.0850106
-0.0824235
-0.0740817
-0.0609843
-0.0440401
-0.023955
-0.00134053
0.0231419
0.0486573
0.0740919
0.0979686
0.118392
0.133122
0.139985
0.136814
0.118437
0.0819301
-0.0686707
-0.104607
-0.121348
-0.123594
-0.117519
-0.10513
-0.0877216
-0.0663289
-0.0416404
-0.0141591
0.015602
0.0469496
0.0788521
0.10979
0.13762
0.159582
0.172723
0.173775
0.155517
0.113567
-0.119406
-0.15936
-0.174918
-0.17276
-0.161151
-0.142932
-0.119762
-0.0927803
-0.0625808
-0.029451
0.00636973
0.0444701
0.0840517
0.1237
0.161133
0.193083
0.215665
0.224074
0.208047
0.160629
-0.188632
-0.232245
-0.243942
-0.233951
-0.213697
-0.187158
-0.156376
-0.122504
-0.085901
-0.0464753
-0.00401761
0.0415357
0.0898389
0.139826
0.189316
0.234686
0.271071
0.291661
0.28174
0.229773
-0.283978
-0.329308
-0.331834
-0.308283
-0.274711
-0.236443
-0.195767
-0.153613
-0.109843
-0.063748
-0.0144407
0.0388606
0.0965515
0.158274
0.222371
0.285285
0.341394
0.381572
0.384911
0.331831
-0.419321
-0.459674
-0.442353
-0.395794
-0.342131
-0.287742
-0.234618
-0.182932
-0.131612
-0.0789873
-0.0232163
0.037473
0.104551
0.178835
0.259859
0.344968
0.428614
0.499698
0.529673
0.485389
-0.620534
-0.636746
-0.578679
-0.494195
-0.411242
-0.33566
-0.267782
-0.205979
-0.147538
-0.0893848
-0.0284279
0.0383465
0.113805
0.20047
0.299973
0.412023
0.533028
0.651773
0.73277
0.722394
-0.935925
-0.878517
-0.741743
-0.59795
-0.474394
-0.37266
-0.28887
-0.217764
-0.153955
-0.0924653
-0.0287187
0.0416942
0.123262
0.220717
0.338924
0.482153
0.651995
0.84134
1.01527
1.0975
-1.47642
-1.20663
-0.920504
-0.691389
-0.517306
-0.387545
-0.290062
-0.213338
-0.148125
-0.0872166
-0.0245788
0.0454562
0.128936
0.23307
0.367102
0.542677
0.771292
1.05932
1.40329
1.73014
-2.53965
-1.63055
-1.04444
-0.71096
-0.495751
-0.352094
-0.254532
-0.183584
-0.12617
-0.0735962
-0.0192702
0.0427856
0.119211
0.218781
0.354811
0.547982
0.826392
1.23658
1.91168
2.92419
-4.36667
-2.04463
-0.973543
-0.563181
-0.357847
-0.240147
-0.17012
-0.123784
-0.0874823
-0.0535114
-0.0166557
0.0276594
0.0846061
0.161728
0.27241
0.442098
0.718218
1.22571
2.41103
4.84853
)
;

boundaryField
{
    movingWall
    {
        type            zeroGradient;
    }
    fixedWalls
    {
        type            zeroGradient;
    }
    frontAndBack
    {
        type            empty;
    }
}


// ************************************************************************* //
