/*--------------------------------*- C++ -*----------------------------------*\
| =========                 |                                                 |
| \\      /  F ield         | OpenFOAM: The Open Source CFD Toolbox           |
|  \\    /   O peration     | Version:  2212                                  |
|   \\  /    A nd           | Website:  www.openfoam.com                      |
|    \\/     M anipulation  |                                                 |
\*---------------------------------------------------------------------------*/
FoamFile
{
    version     2.0;
    format      ascii;
    arch        "LSB;label=32;scalar=64";
    class       surfaceScalarField;
    location    "4.525";
    object      phi;
}
// * * * * * * * * * * * * * * * * * * * * * * * * * * * * * * * * * * * * * //

dimensions      [0 3 -1 0 0 0 0];

oriented        oriented;

internalField   nonuniform List<scalar> 
760
(
1.54669e-07
-1.54666e-07
2.90559e-07
-1.3589e-07
3.06196e-07
-1.56376e-08
1.79976e-07
1.2622e-07
-1.23013e-07
3.02989e-07
-6.66138e-07
5.43125e-07
-1.48121e-06
8.15071e-07
-2.48186e-06
1.00066e-06
-3.4676e-06
9.85738e-07
-4.2064e-06
7.38794e-07
-4.53138e-06
3.24987e-07
-4.34539e-06
-1.85993e-07
-3.59157e-06
-7.53817e-07
-2.38335e-06
-1.20822e-06
-9.49881e-07
-1.43347e-06
3.34997e-07
-1.28488e-06
1.07891e-06
-7.43913e-07
1.02673e-06
5.2176e-08
4.58822e-07
5.67914e-07
4.58823e-07
1.22595e-07
-2.77262e-07
7.02138e-08
-8.35085e-08
-3.00956e-07
3.55532e-07
-1.07962e-06
9.04883e-07
-2.31048e-06
1.53385e-06
-3.91378e-06
2.14642e-06
-5.64089e-06
2.54219e-06
-7.18028e-06
2.54004e-06
-8.30778e-06
2.11324e-06
-8.91345e-06
1.34446e-06
-8.95008e-06
3.61622e-07
-8.39487e-06
-7.41205e-07
-7.27895e-06
-1.86973e-06
-5.63501e-06
-2.85216e-06
-3.60629e-06
-3.46219e-06
-1.4964e-06
-3.39477e-06
1.69331e-07
-2.40964e-06
8.51842e-07
-6.30335e-07
5.22917e-07
8.96838e-07
9.81741e-07
-1.294e-07
-1.47862e-07
-6.354e-07
4.22493e-07
-1.6225e-06
1.34264e-06
-3.13138e-06
2.41376e-06
-5.03755e-06
3.44002e-06
-7.04398e-06
4.15285e-06
-8.83691e-06
4.33512e-06
-1.02363e-05
3.93947e-06
-1.11903e-05
3.0672e-06
-1.16911e-05
1.84523e-06
-1.16875e-05
3.58081e-07
-1.12323e-05
-1.19646e-06
-1.03053e-05
-2.79669e-06
-8.85227e-06
-4.30521e-06
-6.85288e-06
-5.46158e-06
-4.39562e-06
-5.85203e-06
-1.87857e-06
-4.92669e-06
-8.97112e-08
-2.4192e-06
2.93327e-07
5.138e-07
1.27507e-06
-4.99592e-07
3.5173e-07
-1.55523e-06
1.47813e-06
-3.10698e-06
2.89439e-06
-5.05852e-06
4.3653e-06
-7.15191e-06
5.5334e-06
-9.08116e-06
6.08211e-06
-1.06445e-05
5.89844e-06
-1.17989e-05
5.09386e-06
-1.25723e-05
3.84059e-06
-1.29995e-05
2.27252e-06
-1.30662e-05
4.24746e-07
-1.28298e-05
-1.43288e-06
-1.22522e-05
-3.37424e-06
-1.12316e-05
-5.32588e-06
-9.63661e-06
-7.05654e-06
-7.34263e-06
-8.14602e-06
-4.38774e-06
-7.88157e-06
-1.37716e-06
-5.42977e-06
1.19363e-07
-9.82724e-07
1.39443e-06
-8.57968e-07
1.2097e-06
-2.35015e-06
2.97031e-06
-4.21108e-06
4.75532e-06
-6.24754e-06
6.40176e-06
-8.18035e-06
7.46621e-06
-9.78753e-06
7.68929e-06
-1.09919e-05
7.10282e-06
-1.18196e-05
5.92159e-06
-1.23327e-05
4.35362e-06
-1.26041e-05
2.54393e-06
-1.27246e-05
5.45284e-07
-1.26819e-05
-1.47557e-06
-1.24665e-05
-3.58965e-06
-1.19989e-05
-5.79351e-06
-1.10923e-05
-7.96312e-06
-9.45878e-06
-9.77954e-06
-6.79975e-06
-1.05406e-05
-3.21417e-06
-9.01536e-06
-2.6209e-07
-3.9348e-06
1.13234e-06
-1.08036e-06
2.29006e-06
-2.76822e-06
4.65817e-06
-4.65128e-06
6.63838e-06
-6.49924e-06
8.24973e-06
-8.08888e-06
9.05585e-06
-9.28899e-06
8.8894e-06
-1.00947e-05
7.90858e-06
-1.0571e-05
6.39782e-06
-1.08082e-05
4.59085e-06
-1.09069e-05
2.64263e-06
-1.09889e-05
6.27223e-07
-1.10422e-05
-1.42224e-06
-1.10821e-05
-3.5497e-06
-1.10789e-05
-5.79676e-06
-1.08778e-05
-8.16417e-06
-1.01511e-05
-1.05062e-05
-8.40514e-06
-1.22866e-05
-5.22593e-06
-1.21946e-05
-1.15574e-06
-8.00499e-06
-2.34028e-08
-1.10305e-06
3.3931e-06
-2.74093e-06
6.29606e-06
-4.42895e-06
8.32639e-06
-5.9561e-06
9.77688e-06
-7.16269e-06
1.02624e-05
-7.98571e-06
9.71241e-06
-8.462e-06
8.38487e-06
-8.67834e-06
6.61416e-06
-8.73872e-06
4.65124e-06
-8.74119e-06
2.6451e-06
-8.76949e-06
6.55525e-07
-8.84301e-06
-1.34872e-06
-8.9814e-06
-3.4113e-06
-9.19555e-06
-5.58261e-06
-9.42746e-06
-7.93226e-06
-9.44412e-06
-1.04896e-05
-8.72576e-06
-1.3005e-05
-6.51661e-06
-1.44037e-05
-2.41511e-06
-1.21065e-05
-2.43852e-06
-9.28751e-07
4.32186e-06
-2.33168e-06
7.69899e-06
-3.71104e-06
9.70574e-06
-4.88349e-06
1.09493e-05
-5.74796e-06
1.11269e-05
-6.28681e-06
1.02513e-05
-6.55644e-06
8.65451e-06
-6.64778e-06
6.7055e-06
-6.65765e-06
4.66111e-06
-6.66024e-06
2.64769e-06
-6.69258e-06
6.87859e-07
-6.7723e-06
-1.269e-06
-6.92073e-06
-3.26287e-06
-7.1683e-06
-5.33505e-06
-7.53112e-06
-7.56943e-06
-7.91613e-06
-1.01046e-05
-7.91134e-06
-1.30098e-05
-6.69915e-06
-1.56159e-05
-3.57394e-06
-1.52317e-05
-6.01246e-06
-6.19898e-07
4.94175e-06
-1.6759e-06
8.75499e-06
-2.70333e-06
1.07332e-05
-3.53738e-06
1.17834e-05
-4.12219e-06
1.17117e-05
-4.46727e-06
1.05963e-05
-4.63099e-06
8.81822e-06
-4.69188e-06
6.76639e-06
-4.72299e-06
4.69222e-06
-4.7689e-06
2.69359e-06
-4.84031e-06
7.59272e-07
-4.94413e-06
-1.16518e-06
-5.09061e-06
-3.11638e-06
-5.30874e-06
-5.11691e-06
-5.65349e-06
-7.22469e-06
-6.13695e-06
-9.62111e-06
-6.53799e-06
-1.26087e-05
-6.11399e-06
-1.60399e-05
-3.91373e-06
-1.7432e-05
-9.92619e-06
-2.30031e-07
5.17179e-06
-8.86511e-07
9.41147e-06
-1.55435e-06
1.1401e-05
-2.08056e-06
1.23096e-05
-2.43703e-06
1.20682e-05
-2.64769e-06
1.0807e-05
-2.76058e-06
8.93111e-06
-2.82912e-06
6.83493e-06
-2.89853e-06
4.76163e-06
-2.99131e-06
2.78637e-06
-3.11037e-06
8.78335e-07
-3.25563e-06
-1.01993e-06
-3.42756e-06
-2.94445e-06
-3.63892e-06
-4.90555e-06
-3.94139e-06
-6.92222e-06
-4.41672e-06
-9.14578e-06
-5.00967e-06
-1.20158e-05
-5.1151e-06
-1.59345e-05
-3.55262e-06
-1.89944e-05
-1.34788e-05
1.6329e-07
5.0085e-06
-6.84248e-08
9.64318e-06
-3.99393e-07
1.1732e-05
-6.48613e-07
1.25588e-05
-8.0171e-07
1.22213e-05
-8.89661e-07
1.0895e-05
-9.51989e-07
8.99344e-06
-1.02073e-06
6.90367e-06
-1.11265e-06
4.85355e-06
-1.23547e-06
2.90919e-06
-1.39148e-06
1.03434e-06
-1.58285e-06
-8.28561e-07
-1.80848e-06
-2.71882e-06
-2.06686e-06
-4.64717e-06
-2.38645e-06
-6.60263e-06
-2.86061e-06
-8.67162e-06
-3.552e-06
-1.13244e-05
-4.02136e-06
-1.54651e-05
-3.02314e-06
-1.99927e-05
-1.6502e-05
4.98439e-07
4.51006e-06
6.95698e-07
9.44592e-06
7.38831e-07
1.16888e-05
7.74588e-07
1.25231e-05
8.19825e-07
1.21761e-05
8.48946e-07
1.08658e-05
8.41957e-07
9.00043e-06
7.90525e-07
6.9551e-06
6.96175e-07
4.9479e-06
5.60969e-07
3.0444e-06
3.80294e-07
1.21502e-06
1.47957e-07
-5.96224e-07
-1.38157e-07
-2.4327e-06
-4.84675e-07
-4.30065e-06
-8.96786e-07
-6.19052e-06
-1.42049e-06
-8.14791e-06
-2.20306e-06
-1.05418e-05
-2.95524e-06
-1.47129e-05
-2.46167e-06
-2.04862e-05
-1.89636e-05
7.52251e-07
3.75781e-06
1.34757e-06
8.8506e-06
1.739e-06
1.12974e-05
2.06756e-06
1.21945e-05
2.34008e-06
1.19035e-05
2.52585e-06
1.06801e-05
2.61626e-06
8.91001e-06
2.62208e-06
6.94929e-06
2.55788e-06
5.01209e-06
2.43137e-06
3.17091e-06
2.23587e-06
1.41052e-06
1.95748e-06
-3.1784e-07
1.59575e-06
-2.07097e-06
1.14557e-06
-3.85048e-06
6.01895e-07
-5.64684e-06
-8.81732e-08
-7.45784e-06
-9.62168e-07
-9.66783e-06
-1.92537e-06
-1.37497e-05
-1.92816e-06
-2.04834e-05
-2.08918e-05
8.65866e-07
2.89194e-06
1.80133e-06
7.91514e-06
2.54047e-06
1.05583e-05
3.17953e-06
1.15554e-05
3.72562e-06
1.13574e-05
4.13503e-06
1.02706e-05
4.39144e-06
8.6536e-06
4.50888e-06
6.83185e-06
4.51099e-06
5.00998e-06
4.41377e-06
3.26814e-06
4.21577e-06
1.60852e-06
3.88773e-06
1.01973e-08
3.44526e-06
-1.6285e-06
2.86505e-06
-3.27027e-06
2.14708e-06
-4.92887e-06
1.30856e-06
-6.61932e-06
2.57458e-07
-8.61673e-06
-9.66876e-07
-1.25254e-05
-1.43135e-06
-2.0019e-05
-2.23231e-05
8.01757e-07
2.09018e-06
1.9441e-06
6.77279e-06
2.98303e-06
9.51935e-06
3.95359e-06
1.05849e-05
4.82831e-06
1.04827e-05
5.54077e-06
9.55818e-06
6.05149e-06
8.14288e-06
6.36348e-06
6.51986e-06
6.49828e-06
4.87518e-06
6.47495e-06
3.29146e-06
6.29303e-06
1.79044e-06
5.94783e-06
3.55399e-07
5.41041e-06
-1.09108e-06
4.68523e-06
-2.54509e-06
3.7643e-06
-4.00794e-06
2.67588e-06
-5.5309e-06
1.37765e-06
-7.3185e-06
-1.6146e-07
-1.09863e-05
-9.1834e-07
-1.92621e-05
-2.32415e-05
5.74104e-07
1.51608e-06
1.75016e-06
5.59674e-06
3.08385e-06
8.18565e-06
4.43089e-06
9.23784e-06
5.69384e-06
9.21978e-06
6.77394e-06
8.47808e-06
7.60555e-06
7.31127e-06
8.176e-06
5.94941e-06
8.49817e-06
4.55302e-06
8.58968e-06
3.19995e-06
8.45775e-06
1.92237e-06
8.10025e-06
7.12899e-07
7.47371e-06
-4.64543e-07
6.59475e-06
-1.66613e-06
5.45039e-06
-2.86358e-06
4.08152e-06
-4.16204e-06
2.55758e-06
-5.79455e-06
9.46496e-07
-9.3752e-06
-1.49281e-07
-1.81663e-05
-2.33908e-05
1.50151e-07
1.36593e-06
1.03261e-06
4.71428e-06
2.50468e-06
6.71358e-06
4.22179e-06
7.52074e-06
5.93946e-06
7.50212e-06
7.4703e-06
6.94723e-06
8.71154e-06
6.07003e-06
9.63348e-06
5.02747e-06
1.02315e-05
3.95504e-06
1.05178e-05
2.91362e-06
1.04988e-05
1.9414e-06
1.01804e-05
1.03122e-06
9.51942e-06
1.96471e-07
8.53377e-06
-6.80482e-07
7.2161e-06
-1.54591e-06
5.61711e-06
-2.56304e-06
3.89579e-06
-4.07324e-06
2.23127e-06
-7.71068e-06
6.49507e-07
-1.65845e-05
-2.27413e-05
-5.15863e-07
1.88179e-06
1.98142e-07
4.00028e-06
1.74803e-06
5.1637e-06
3.80553e-06
5.46323e-06
5.95539e-06
5.35226e-06
7.91189e-06
4.99073e-06
9.53844e-06
4.44348e-06
1.07938e-05
3.77208e-06
1.16607e-05
3.08819e-06
1.2156e-05
2.41835e-06
1.22839e-05
1.81344e-06
1.20649e-05
1.25027e-06
1.15211e-05
7.40279e-07
1.0626e-05
2.14613e-07
9.38372e-06
-3.03667e-07
7.86466e-06
-1.04398e-06
6.25446e-06
-2.46305e-06
4.44978e-06
-5.90599e-06
2.05273e-06
-1.41875e-05
-2.06885e-05
-4.17783e-06
6.05962e-06
-3.64135e-06
3.4638e-06
-1.25016e-06
2.7725e-06
1.5431e-06
2.66998e-06
4.27722e-06
2.61814e-06
6.80663e-06
2.46133e-06
9.01882e-06
2.23129e-06
1.0854e-05
1.93689e-06
1.22943e-05
1.64791e-06
1.33669e-05
1.34575e-06
1.40891e-05
1.09126e-06
1.45054e-05
8.33935e-07
1.46043e-05
6.41376e-07
1.43959e-05
4.23038e-07
1.38721e-05
2.20093e-07
1.30483e-05
-2.2014e-07
1.19142e-05
-1.329e-06
1.01091e-05
-4.10085e-06
5.63653e-06
-9.71493e-06
-1.5052e-05
6.05962e-06
9.52343e-06
1.22959e-05
1.49659e-05
1.7584e-05
2.00454e-05
2.22767e-05
2.42136e-05
2.58615e-05
2.72072e-05
2.82985e-05
2.91324e-05
2.97738e-05
3.01968e-05
3.04169e-05
3.01968e-05
2.88678e-05
2.47669e-05
1.5052e-05
)
;

boundaryField
{
    movingWall
    {
        type            calculated;
        value           uniform 0;
    }
    fixedWalls
    {
        type            calculated;
        value           uniform 0;
    }
    frontAndBack
    {
        type            empty;
        value           nonuniform List<scalar> 0();
    }
}


// ************************************************************************* //
