/*--------------------------------*- C++ -*----------------------------------*\
| =========                 |                                                 |
| \\      /  F ield         | OpenFOAM: The Open Source CFD Toolbox           |
|  \\    /   O peration     | Version:  2212                                  |
|   \\  /    A nd           | Website:  www.openfoam.com                      |
|    \\/     M anipulation  |                                                 |
\*---------------------------------------------------------------------------*/
FoamFile
{
    version     2.0;
    format      ascii;
    arch        "LSB;label=32;scalar=64";
    class       volVectorField;
    location    "3.835";
    object      U;
}
// * * * * * * * * * * * * * * * * * * * * * * * * * * * * * * * * * * * * * //

dimensions      [0 1 -1 0 0 0 0];

internalField   nonuniform List<vector> 
400
(
(0.00164716 -0.00165491 0)
(0.00472844 -0.00185584 0)
(0.00642103 -0.00118009 0)
(0.00548899 -0.000560988 0)
(0.00140853 0.000196568 0)
(-0.00691152 0.00173552 0)
(-0.0205301 0.00472645 0)
(-0.0392325 0.00860623 0)
(-0.0602719 0.0111473 0)
(-0.0784735 0.0104241 0)
(-0.0891649 0.00676203 0)
(-0.0899459 0.00171543 0)
(-0.0799356 -0.00352532 0)
(-0.059965 -0.00816612 0)
(-0.0337461 -0.0107489 0)
(-0.00570578 -0.00974079 0)
(0.0162397 -0.00481785 0)
(0.0240745 0.00268948 0)
(0.0159968 0.00638291 0)
(0.00428517 0.00466989 0)
(0.001659 -0.00493858 0)
(0.00299508 -0.00389815 0)
(-0.000629571 0.000641187 0)
(-0.0114654 0.00641149 0)
(-0.0313371 0.0139132 0)
(-0.0606915 0.0234859 0)
(-0.0959819 0.0326493 0)
(-0.130291 0.0366924 0)
(-0.157648 0.0332509 0)
(-0.174761 0.023317 0)
(-0.180204 0.00920131 0)
(-0.174002 -0.00675408 0)
(-0.15673 -0.0228263 0)
(-0.129101 -0.0365215 0)
(-0.0933622 -0.0442067 0)
(-0.0522381 -0.0416088 0)
(-0.0116647 -0.0263329 0)
(0.0165186 -0.00149136 0)
(0.0176494 0.0159696 0)
(0.00550198 0.0146677 0)
(-0.000293944 -0.00554663 0)
(-0.00547545 0.000995434 0)
(-0.0196172 0.0142569 0)
(-0.0442399 0.0309206 0)
(-0.079633 0.0488687 0)
(-0.121022 0.0635844 0)
(-0.160801 0.0698251 0)
(-0.193489 0.0654711 0)
(-0.216959 0.0518748 0)
(-0.230607 0.0314894 0)
(-0.234434 0.00664072 0)
(-0.229084 -0.020647 0)
(-0.214864 -0.0482192 0)
(-0.191272 -0.0724808 0)
(-0.158034 -0.0883143 0)
(-0.115117 -0.0887009 0)
(-0.0643204 -0.0668345 0)
(-0.0139402 -0.0229126 0)
(0.00935513 0.0175287 0)
(0.00415108 0.0233399 0)
(-0.00346402 0.000710807 0)
(-0.0174065 0.0173165 0)
(-0.0431516 0.0411447 0)
(-0.0788828 0.0674275 0)
(-0.121649 0.0901273 0)
(-0.164119 0.102766 0)
(-0.199906 0.101968 0)
(-0.227041 0.0889925 0)
(-0.245772 0.066958 0)
(-0.256698 0.0385522 0)
(-0.260652 0.00564114 0)
(-0.258429 -0.0304558 0)
(-0.249966 -0.0675268 0)
(-0.234215 -0.102646 0)
(-0.209182 -0.130371 0)
(-0.172171 -0.141925 0)
(-0.120647 -0.125161 0)
(-0.0565842 -0.0707988 0)
(-0.00107396 0.00315836 0)
(0.00473616 0.0279472 0)
(-0.0065933 0.0149133 0)
(-0.02841 0.0438858 0)
(-0.0625641 0.0763083 0)
(-0.103235 0.107694 0)
(-0.145589 0.129795 0)
(-0.182565 0.136848 0)
(-0.21069 0.128387 0)
(-0.230319 0.10794 0)
(-0.242737 0.0793498 0)
(-0.249663 0.0453962 0)
(-0.252792 0.00760875 0)
(-0.253058 -0.033225 0)
(-0.250244 -0.075976 0)
(-0.243771 -0.11934 0)
(-0.230832 -0.159377 0)
(-0.206801 -0.187653 0)
(-0.165661 -0.18887 0)
(-0.102765 -0.142284 0)
(-0.0221322 -0.0390331 0)
(0.00730568 0.0267708 0)
(-0.00839221 0.0347335 0)
(-0.0347051 0.0760143 0)
(-0.0721418 0.113721 0)
(-0.11183 0.146067 0)
(-0.148712 0.164306 0)
(-0.177335 0.164396 0)
(-0.196683 0.148466 0)
(-0.208272 0.121546 0)
(-0.214083 0.0879797 0)
(-0.216602 0.0507519 0)
(-0.217829 0.0113229 0)
(-0.218792 -0.0299167 0)
(-0.219697 -0.0734685 0)
(-0.220611 -0.119748 0)
(-0.219321 -0.167557 0)
(-0.210708 -0.211406 0)
(-0.186686 -0.237091 0)
(-0.138702 -0.217382 0)
(-0.0623562 -0.118434 0)
(0.00572338 0.0139683 0)
(-0.00815704 0.0565361 0)
(-0.0348118 0.108967 0)
(-0.0708236 0.148857 0)
(-0.10564 0.179207 0)
(-0.134975 0.191891 0)
(-0.155188 0.184705 0)
(-0.166914 0.16184 0)
(-0.172245 0.129403 0)
(-0.173593 0.0921743 0)
(-0.173492 0.0531847 0)
(-0.173501 0.013671 0)
(-0.17433 -0.0263525 0)
(-0.176532 -0.0680798 0)
(-0.180635 -0.112863 0)
(-0.18595 -0.161854 0)
(-0.188786 -0.21389 0)
(-0.181207 -0.259922 0)
(-0.153226 -0.273669 0)
(-0.0986029 -0.204834 0)
(-0.00885264 -0.0147418 0)
(-0.0060202 0.0767969 0)
(-0.0293064 0.139122 0)
(-0.060504 0.179236 0)
(-0.0886228 0.206068 0)
(-0.110393 0.212708 0)
(-0.123752 0.198619 0)
(-0.130231 0.169679 0)
(-0.132121 0.132848 0)
(-0.131893 0.0931551 0)
(-0.131542 0.0533487 0)
(-0.131804 0.0141571 0)
(-0.132884 -0.0248333 0)
(-0.135252 -0.0647218 0)
(-0.139604 -0.106829 0)
(-0.146526 -0.153209 0)
(-0.154641 -0.206239 0)
(-0.157879 -0.263867 0)
(-0.145848 -0.306374 0)
(-0.111524 -0.275755 0)
(-0.0306674 -0.0749012 0)
(-0.00266274 0.0925226 0)
(-0.0200497 0.163866 0)
(-0.0444267 0.20333 0)
(-0.0653458 0.22609 0)
(-0.0804251 0.227141 0)
(-0.0887538 0.207396 0)
(-0.0921727 0.173905 0)
(-0.0928174 0.134164 0)
(-0.0928116 0.0932358 0)
(-0.0933755 0.0534076 0)
(-0.0945882 0.014773 0)
(-0.0963602 -0.0235097 0)
(-0.0988741 -0.0623067 0)
(-0.102647 -0.102408 0)
(-0.10883 -0.145547 0)
(-0.118134 -0.19575 0)
(-0.127305 -0.257401 0)
(-0.12583 -0.32147 0)
(-0.106915 -0.332959 0)
(-0.0370864 -0.162184 0)
(0.00121716 0.101467 0)
(-0.00874711 0.181438 0)
(-0.0251955 0.220659 0)
(-0.0390013 0.240077 0)
(-0.0483445 0.236942 0)
(-0.0530872 0.213195 0)
(-0.0548785 0.176669 0)
(-0.0553753 0.135243 0)
(-0.0561238 0.0939175 0)
(-0.0577055 0.0544513 0)
(-0.0599003 0.0163704 0)
(-0.0625538 -0.0214532 0)
(-0.0656637 -0.0597533 0)
(-0.0694296 -0.0988486 0)
(-0.074809 -0.139554 0)
(-0.0834017 -0.185667 0)
(-0.0952429 -0.245574 0)
(-0.100216 -0.322152 0)
(-0.0948304 -0.370323 0)
(-0.0308014 -0.241001 0)
(0.00503235 0.102567 0)
(0.0029468 0.190871 0)
(-0.00526443 0.231003 0)
(-0.0122737 0.247976 0)
(-0.0165867 0.241992 0)
(-0.0183953 0.215991 0)
(-0.0189766 0.178143 0)
(-0.0193828 0.13633 0)
(-0.020576 0.0953123 0)
(-0.0227436 0.056463 0)
(-0.0255845 0.0190262 0)
(-0.0290192 -0.018222 0)
(-0.0330638 -0.0560498 0)
(-0.0376861 -0.0946093 0)
(-0.0434564 -0.133933 0)
(-0.0516739 -0.176598 0)
(-0.065226 -0.23251 0)
(-0.074046 -0.315717 0)
(-0.0810466 -0.39472 0)
(-0.0228951 -0.305379 0)
(0.00827658 0.0961796 0)
(0.0139834 0.191817 0)
(0.0138813 0.23447 0)
(0.0134975 0.2507 0)
(0.0141236 0.243706 0)
(0.0153301 0.2172 0)
(0.0162101 0.179363 0)
(0.016284 0.137919 0)
(0.0151456 0.0974249 0)
(0.012849 0.0591872 0)
(0.00968159 0.0224771 0)
(0.00562255 -0.0139218 0)
(0.000526508 -0.0508905 0)
(-0.00549346 -0.0886222 0)
(-0.0128443 -0.126819 0)
(-0.0217699 -0.166641 0)
(-0.0375646 -0.217341 0)
(-0.0488525 -0.301988 0)
(-0.0679483 -0.406521 0)
(-0.0144849 -0.358253 0)
(0.0100684 0.083454 0)
(0.0229582 0.184321 0)
(0.0305185 0.230637 0)
(0.0363653 0.247269 0)
(0.0419523 0.240498 0)
(0.0468417 0.214916 0)
(0.0502138 0.178387 0)
(0.051813 0.138274 0)
(0.0515892 0.0989539 0)
(0.0497667 0.0617966 0)
(0.0466124 0.0262606 0)
(0.042052 -0.00880286 0)
(0.0359017 -0.0443463 0)
(0.0282478 -0.0806433 0)
(0.0183281 -0.117369 0)
(0.00718647 -0.154856 0)
(-0.0120885 -0.200978 0)
(-0.024648 -0.283938 0)
(-0.0560503 -0.409107 0)
(-0.00621057 -0.400219 0)
(0.00960068 0.0665985 0)
(0.0283964 0.168778 0)
(0.043493 0.21972 0)
(0.0558513 0.238565 0)
(0.0669825 0.233667 0)
(0.0765227 0.210493 0)
(0.0835989 0.176447 0)
(0.0878995 0.138417 0)
(0.0895051 0.100691 0)
(0.0887422 0.0648584 0)
(0.0859523 0.030755 0)
(0.0809634 -0.00265747 0)
(0.0735938 -0.0360638 0)
(0.0640994 -0.0700888 0)
(0.0511647 -0.104558 0)
(0.0365349 -0.139423 0)
(0.0124088 -0.180946 0)
(-0.000581072 -0.260793 0)
(-0.0451401 -0.404976 0)
(0.0026458 -0.434831 0)
(0.0067268 0.049209 0)
(0.0286565 0.147478 0)
(0.0500398 0.20142 0)
(0.0686358 0.222019 0)
(0.0858668 0.219152 0)
(0.101336 0.199171 0)
(0.113789 0.168837 0)
(0.122538 0.134272 0)
(0.1275 0.0994941 0)
(0.128955 0.0662131 0)
(0.127188 0.0346543 0)
(0.122292 0.00399075 0)
(0.113766 -0.026198 0)
(0.102259 -0.0567742 0)
(0.0855562 -0.0878159 0)
(0.0667528 -0.119975 0)
(0.0371467 -0.157842 0)
(0.0230651 -0.2349 0)
(-0.034873 -0.397446 0)
(0.013295 -0.463325 0)
(0.00230875 0.0348044 0)
(0.0230217 0.122951 0)
(0.049828 0.178174 0)
(0.0751548 0.20077 0)
(0.0994698 0.200381 0)
(0.122032 0.184108 0)
(0.141186 0.158287 0)
(0.155718 0.128165 0)
(0.165216 0.0973543 0)
(0.169914 0.0675614 0)
(0.169784 0.0393628 0)
(0.165554 0.0123253 0)
(0.15586 -0.0139312 0)
(0.142368 -0.0401604 0)
(0.121491 -0.0667005 0)
(0.0984007 -0.0951225 0)
(0.0630968 -0.130177 0)
(0.0461306 -0.205635 0)
(-0.023224 -0.386036 0)
(0.0282765 -0.484834 0)
(-0.00337599 0.0290638 0)
(0.00962908 0.101106 0)
(0.0360959 0.14741 0)
(0.0674745 0.167726 0)
(0.0999272 0.168823 0)
(0.131235 0.156619 0)
(0.15885 0.136387 0)
(0.181049 0.112265 0)
(0.196811 0.0873169 0)
(0.206497 0.0630686 0)
(0.20931 0.0402628 0)
(0.207007 0.0187426 0)
(0.196907 -0.00185152 0)
(0.182525 -0.0220608 0)
(0.158159 -0.0423696 0)
(0.132057 -0.0658927 0)
(0.0911945 -0.0997606 0)
(0.0689984 -0.178538 0)
(-0.0048666 -0.369391 0)
(0.0519134 -0.491274 0)
(-0.0137058 0.0189597 0)
(-0.00749497 0.0882318 0)
(0.0185829 0.123558 0)
(0.055225 0.136227 0)
(0.0957906 0.135617 0)
(0.135618 0.12643 0)
(0.171375 0.111892 0)
(0.200777 0.0943071 0)
(0.222341 0.0760881 0)
(0.237157 0.0582237 0)
(0.243094 0.0416836 0)
(0.24398 0.0263122 0)
(0.234855 0.0123016 0)
(0.223278 -0.00122655 0)
(0.198784 -0.0150146 0)
(0.175417 -0.0338296 0)
(0.131785 -0.0665835 0)
(0.106913 -0.145274 0)
(0.0370487 -0.326015 0)
(0.0921988 -0.455818 0)
(-0.10581 0.082729 0)
(-0.0775927 0.0692269 0)
(-0.0486716 0.0731182 0)
(0.00320796 0.0773458 0)
(0.0561659 0.0775257 0)
(0.108339 0.0732297 0)
(0.155006 0.0659558 0)
(0.196906 0.0566627 0)
(0.228699 0.0471456 0)
(0.256599 0.0376571 0)
(0.272261 0.0291846 0)
(0.28742 0.02137 0)
(0.287979 0.0147883 0)
(0.292356 0.00852686 0)
(0.27656 0.0016863 0)
(0.269841 -0.00945083 0)
(0.231049 -0.0350646 0)
(0.217549 -0.0951853 0)
(0.150082 -0.229714 0)
(0.170649 -0.341499 0)
(0.130089 0.103834 0)
(0.158576 0.0754643 0)
(0.212569 0.0534882 0)
(0.271047 0.0418223 0)
(0.323432 0.0360364 0)
(0.375563 0.0320081 0)
(0.419823 0.028942 0)
(0.464805 0.0255928 0)
(0.497638 0.022923 0)
(0.532693 0.0197452 0)
(0.552044 0.0176075 0)
(0.577857 0.0146909 0)
(0.584099 0.0132737 0)
(0.602624 0.0104738 0)
(0.59431 0.00952834 0)
(0.60311 0.00513077 0)
(0.567606 0.00019912 0)
(0.547738 -0.0182458 0)
(0.43598 -0.0504048 0)
(0.336898 -0.101408 0)
)
;

boundaryField
{
    movingWall
    {
        type            fixedValue;
        value           uniform (1 0 0);
    }
    fixedWalls
    {
        type            noSlip;
    }
    frontAndBack
    {
        type            empty;
    }
}


// ************************************************************************* //
