/*--------------------------------*- C++ -*----------------------------------*\
| =========                 |                                                 |
| \\      /  F ield         | OpenFOAM: The Open Source CFD Toolbox           |
|  \\    /   O peration     | Version:  2212                                  |
|   \\  /    A nd           | Website:  www.openfoam.com                      |
|    \\/     M anipulation  |                                                 |
\*---------------------------------------------------------------------------*/
FoamFile
{
    version     2.0;
    format      ascii;
    arch        "LSB;label=32;scalar=64";
    class       volScalarField;
    location    "3.72";
    object      p;
}
// * * * * * * * * * * * * * * * * * * * * * * * * * * * * * * * * * * * * * //

dimensions      [0 2 -2 0 0 0 0];

internalField   nonuniform List<scalar> 
400
(
1.17027e-06
-0.00582798
-0.0129663
-0.0184189
-0.0204366
-0.018243
-0.0117785
-0.00148826
0.0118329
0.0271448
0.0432402
0.0588189
0.0725746
0.0833045
0.0900489
0.0922631
0.0900219
0.08424
0.0768767
0.0710631
0.00577807
-0.000221454
-0.00580755
-0.00954641
-0.0106031
-0.00843702
-0.00297438
0.00546964
0.0162984
0.0287073
0.0417456
0.0543819
0.0655824
0.0744059
0.0801163
0.0823118
0.0810733
0.0770508
0.07127
0.0653138
0.0133319
0.00503025
-0.000998957
-0.00442695
-0.00527695
-0.00326813
0.00159797
0.0090231
0.0184976
0.0293448
0.0407611
0.0518655
0.0617645
0.0696324
0.074803
0.076874
0.0758375
0.0720817
0.0658013
0.0575313
0.0201361
0.00869245
0.00122215
-0.00267239
-0.00372611
-0.00188945
0.00272698
0.00978013
0.0187759
0.0290905
0.0399876
0.0506497
0.0602288
0.0679119
0.0729991
0.0749974
0.0737616
0.0694518
0.0615986
0.0500981
0.0244987
0.00976958
0.000586038
-0.0039908
-0.00530622
-0.00351142
0.00117053
0.00833021
0.0174575
0.0279445
0.0390805
0.0500655
0.0600446
0.0681609
0.0736222
0.0757935
0.0743647
0.0692854
0.0595211
0.0445326
0.0251745
0.0071465
-0.00380575
-0.00906109
-0.0105161
-0.00850403
-0.00336094
0.00442519
0.014309
0.0256745
0.0378093
0.0498988
0.0610437
0.0702988
0.0767304
0.0795126
0.0781346
0.0723292
0.0605348
0.0418854
0.02109
-0.000265936
-0.0129382
-0.0187132
-0.0200338
-0.017418
-0.0113225
-0.00232384
0.0089862
0.0219718
0.0359052
0.0499399
0.0631077
0.0743409
0.0825175
0.0865652
0.0857164
0.0794428
0.0656159
0.0430672
0.0111392
-0.0136219
-0.0278788
-0.0338581
-0.0346075
-0.0308615
-0.0232169
-0.0123493
0.0011007
0.0164797
0.0330482
0.0499292
0.0660789
0.0802855
0.0911963
0.0974257
0.097866
0.0916317
0.0758919
0.049112
-0.00597098
-0.0342703
-0.0498738
-0.0555524
-0.055094
-0.0495186
-0.0395976
-0.0261174
-0.00976122
0.00881886
0.0288968
0.0495892
0.0697932
0.0881502
0.103043
0.112697
0.115546
0.110188
0.09283
0.0614071
-0.0318611
-0.0638801
-0.0804208
-0.085011
-0.082424
-0.0740823
-0.0609849
-0.0440407
-0.0239556
-0.00134101
0.0231415
0.0486569
0.0740914
0.097968
0.118392
0.133121
0.139984
0.136814
0.118437
0.0819296
-0.0686714
-0.104607
-0.121348
-0.123594
-0.117519
-0.10513
-0.0877222
-0.0663295
-0.0416411
-0.0141597
0.0156015
0.0469491
0.0788517
0.109789
0.13762
0.159582
0.172723
0.173774
0.155516
0.113567
-0.119406
-0.159361
-0.174919
-0.172761
-0.161152
-0.142933
-0.119763
-0.0927809
-0.0625814
-0.0294516
0.00636913
0.0444695
0.0840512
0.123699
0.161132
0.193082
0.215664
0.224073
0.208047
0.160629
-0.188632
-0.232246
-0.243942
-0.233952
-0.213698
-0.187158
-0.156376
-0.122505
-0.0859016
-0.0464759
-0.00401824
0.041535
0.0898384
0.139826
0.189315
0.234686
0.271071
0.291661
0.281739
0.229772
-0.283978
-0.329308
-0.331835
-0.308283
-0.274712
-0.236443
-0.195768
-0.153613
-0.109843
-0.0637485
-0.0144413
0.03886
0.0965509
0.158273
0.222371
0.285285
0.341394
0.381572
0.384911
0.331831
-0.419322
-0.459674
-0.442353
-0.395795
-0.342132
-0.287742
-0.234619
-0.182933
-0.131612
-0.0789878
-0.0232168
0.0374724
0.10455
0.178835
0.259858
0.344967
0.428613
0.499697
0.529672
0.485389
-0.620534
-0.636746
-0.578679
-0.494195
-0.411243
-0.335661
-0.267783
-0.20598
-0.147539
-0.0893852
-0.0284283
0.038346
0.113804
0.200469
0.299973
0.412023
0.533027
0.651773
0.732769
0.722393
-0.935926
-0.878517
-0.741743
-0.59795
-0.474395
-0.372661
-0.28887
-0.217764
-0.153955
-0.0924658
-0.0287192
0.0416938
0.123262
0.220716
0.338924
0.482153
0.651995
0.84134
1.01527
1.0975
-1.47643
-1.20663
-0.920505
-0.691389
-0.517306
-0.387545
-0.290063
-0.213339
-0.148126
-0.0872172
-0.0245794
0.0454557
0.128936
0.233069
0.367101
0.542676
0.771291
1.05932
1.40329
1.73014
-2.53965
-1.63055
-1.04444
-0.71096
-0.495752
-0.352095
-0.254532
-0.183585
-0.126171
-0.0735968
-0.0192708
0.0427851
0.11921
0.218781
0.35481
0.547982
0.826391
1.23658
1.91168
2.92419
-4.36667
-2.04464
-0.973544
-0.563182
-0.357848
-0.240148
-0.170121
-0.123784
-0.0874828
-0.0535119
-0.0166562
0.0276588
0.0846056
0.161728
0.272409
0.442097
0.718217
1.22571
2.41103
4.84853
)
;

boundaryField
{
    movingWall
    {
        type            zeroGradient;
    }
    fixedWalls
    {
        type            zeroGradient;
    }
    frontAndBack
    {
        type            empty;
    }
}


// ************************************************************************* //
