/*--------------------------------*- C++ -*----------------------------------*\
| =========                 |                                                 |
| \\      /  F ield         | OpenFOAM: The Open Source CFD Toolbox           |
|  \\    /   O peration     | Version:  2212                                  |
|   \\  /    A nd           | Website:  www.openfoam.com                      |
|    \\/     M anipulation  |                                                 |
\*---------------------------------------------------------------------------*/
FoamFile
{
    version     2.0;
    format      ascii;
    arch        "LSB;label=32;scalar=64";
    class       volScalarField;
    location    "2.595";
    object      p;
}
// * * * * * * * * * * * * * * * * * * * * * * * * * * * * * * * * * * * * * //

dimensions      [0 2 -2 0 0 0 0];

internalField   nonuniform List<scalar> 
400
(
1.82714e-06
-0.00582688
-0.0129651
-0.0184177
-0.0204354
-0.0182418
-0.0117772
-0.00148697
0.0118342
0.027146
0.0432414
0.0588201
0.0725759
0.0833058
0.0900502
0.0922644
0.0900232
0.0842411
0.0768778
0.0710642
0.0057792
-0.000220251
-0.00580634
-0.00954523
-0.0106019
-0.0084358
-0.00297311
0.00547095
0.0162997
0.0287086
0.0417468
0.054383
0.0655836
0.0744072
0.0801176
0.0823131
0.0810746
0.0770521
0.0712712
0.0653149
0.0133331
0.00503149
-0.000997709
-0.00442573
-0.00527577
-0.00326697
0.00159918
0.00902438
0.0184989
0.0293462
0.0407624
0.0518667
0.0617656
0.0696335
0.0748042
0.0768753
0.0758388
0.0720831
0.0658026
0.0575325
0.0201373
0.00869369
0.00122343
-0.00267112
-0.0037249
-0.00188829
0.00272813
0.00978134
0.0187771
0.0290919
0.0399889
0.050651
0.06023
0.067913
0.0730003
0.0749986
0.0737629
0.0694532
0.0615999
0.0500994
0.0244999
0.0097708
0.000587317
-0.00398949
-0.00530494
-0.00351021
0.00117168
0.00833135
0.0174587
0.0279458
0.0390818
0.0500669
0.0600459
0.0681621
0.0736234
0.0757947
0.0743659
0.0692867
0.0595224
0.0445339
0.0251757
0.00714769
-0.00380451
-0.00905978
-0.0105148
-0.00850274
-0.00335974
0.00442633
0.0143101
0.0256757
0.0378106
0.0499002
0.061045
0.0703001
0.0767316
0.0795138
0.0781358
0.0723304
0.0605361
0.0418868
0.0210913
-0.000264757
-0.012937
-0.0187119
-0.0200325
-0.0174166
-0.0113212
-0.00232263
0.00898733
0.021973
0.0359064
0.0499412
0.063109
0.0743422
0.0825188
0.0865664
0.0857176
0.0794439
0.0656172
0.0430684
0.0111405
-0.0136207
-0.0278776
-0.0338569
-0.0346062
-0.0308602
-0.0232156
-0.012348
0.00110191
0.0164808
0.0330494
0.0499304
0.0660802
0.0802868
0.0911977
0.097427
0.0978672
0.0916329
0.0758931
0.0491133
-0.00596964
-0.034269
-0.0498726
-0.0555513
-0.0550929
-0.0495173
-0.0395962
-0.0261161
-0.00975992
0.00882007
0.0288979
0.0495904
0.0697944
0.0881514
0.103044
0.112698
0.115548
0.110189
0.0928312
0.0614083
-0.0318598
-0.0638787
-0.0804195
-0.0850098
-0.0824228
-0.0740811
-0.0609837
-0.0440394
-0.0239543
-0.00133971
0.0231427
0.048658
0.0740926
0.0979692
0.118393
0.133123
0.139986
0.136815
0.118438
0.0819308
-0.0686701
-0.104606
-0.121347
-0.123593
-0.117518
-0.105129
-0.0877211
-0.0663283
-0.0416398
-0.0141584
0.0156028
0.0469504
0.0788529
0.109791
0.137621
0.159583
0.172724
0.173775
0.155518
0.113568
-0.119405
-0.15936
-0.174917
-0.17276
-0.16115
-0.142931
-0.119762
-0.0927797
-0.0625801
-0.0294503
0.00637047
0.0444708
0.0840525
0.1237
0.161133
0.193083
0.215665
0.224074
0.208048
0.16063
-0.188631
-0.232245
-0.243941
-0.23395
-0.213697
-0.187157
-0.156375
-0.122504
-0.0859004
-0.0464747
-0.00401695
0.0415364
0.0898397
0.139827
0.189316
0.234687
0.271072
0.291662
0.28174
0.229773
-0.283977
-0.329307
-0.331834
-0.308282
-0.274711
-0.236442
-0.195766
-0.153612
-0.109842
-0.0637473
-0.0144401
0.0388613
0.0965522
0.158274
0.222372
0.285286
0.341395
0.381573
0.384912
0.331832
-0.41932
-0.459673
-0.442352
-0.395794
-0.342131
-0.287741
-0.234617
-0.182931
-0.131611
-0.0789866
-0.0232157
0.0374736
0.104552
0.178836
0.25986
0.344969
0.428615
0.499698
0.529673
0.48539
-0.620533
-0.636745
-0.578678
-0.494194
-0.411242
-0.335659
-0.267781
-0.205979
-0.147537
-0.089384
-0.0284271
0.0383472
0.113806
0.20047
0.299974
0.412024
0.533028
0.651774
0.73277
0.722394
-0.935925
-0.878516
-0.741742
-0.597949
-0.474393
-0.37266
-0.288869
-0.217763
-0.153954
-0.0924645
-0.028718
0.041695
0.123263
0.220717
0.338925
0.482154
0.651996
0.841341
1.01527
1.0975
-1.47642
-1.20663
-0.920503
-0.691388
-0.517305
-0.387544
-0.290061
-0.213338
-0.148124
-0.0872159
-0.0245781
0.045457
0.128937
0.23307
0.367103
0.542678
0.771292
1.05932
1.40329
1.73014
-2.53965
-1.63055
-1.04444
-0.710959
-0.495751
-0.352093
-0.254531
-0.183583
-0.12617
-0.0735956
-0.0192695
0.0427864
0.119212
0.218782
0.354812
0.547983
0.826392
1.23658
1.91168
2.92419
-4.36666
-2.04463
-0.973542
-0.563181
-0.357846
-0.240147
-0.170119
-0.123783
-0.0874816
-0.0535107
-0.016655
0.02766
0.0846068
0.161729
0.272411
0.442098
0.718218
1.22571
2.41103
4.84853
)
;

boundaryField
{
    movingWall
    {
        type            zeroGradient;
    }
    fixedWalls
    {
        type            zeroGradient;
    }
    frontAndBack
    {
        type            empty;
    }
}


// ************************************************************************* //
