/*--------------------------------*- C++ -*----------------------------------*\
| =========                 |                                                 |
| \\      /  F ield         | OpenFOAM: The Open Source CFD Toolbox           |
|  \\    /   O peration     | Version:  2212                                  |
|   \\  /    A nd           | Website:  www.openfoam.com                      |
|    \\/     M anipulation  |                                                 |
\*---------------------------------------------------------------------------*/
FoamFile
{
    version     2.0;
    format      ascii;
    arch        "LSB;label=32;scalar=64";
    class       volScalarField;
    location    "1.46";
    object      p;
}
// * * * * * * * * * * * * * * * * * * * * * * * * * * * * * * * * * * * * * //

dimensions      [0 2 -2 0 0 0 0];

internalField   nonuniform List<scalar> 
400
(
2.90264e-06
-0.00582506
-0.0129631
-0.0184156
-0.0204333
-0.0182397
-0.0117752
-0.00148499
0.0118361
0.027148
0.0432434
0.0588222
0.072578
0.0833079
0.0900523
0.0922664
0.0900252
0.0842431
0.0768798
0.0710663
0.00578103
-0.000218321
-0.00580438
-0.00954324
-0.0105998
-0.00843372
-0.00297102
0.005473
0.0163017
0.0287106
0.0417487
0.054385
0.0655857
0.0744093
0.0801197
0.0823152
0.0810766
0.0770541
0.0712733
0.0653169
0.0133352
0.00503349
-0.000995741
-0.00442377
-0.00527378
-0.00326492
0.00160128
0.00902649
0.0185009
0.0293482
0.0407644
0.0518686
0.0617676
0.0696356
0.0748063
0.0768774
0.0758409
0.0720851
0.0658046
0.0575345
0.0201394
0.00869574
0.00122545
-0.00266915
-0.00372294
-0.0018863
0.00273019
0.00978345
0.0187793
0.0290939
0.0399909
0.050653
0.0602319
0.067915
0.0730023
0.0750007
0.073765
0.0694552
0.061602
0.0501014
0.0245019
0.00977287
0.000589387
-0.00398746
-0.00530297
-0.00350827
0.00117367
0.00833342
0.0174608
0.027948
0.0390839
0.0500689
0.0600479
0.068164
0.0736254
0.0757967
0.074368
0.0692888
0.0595245
0.0445359
0.0251777
0.00714975
-0.00380241
-0.0090577
-0.0105128
-0.00850079
-0.0033578
0.00442832
0.0143122
0.0256779
0.0378127
0.0499022
0.0610471
0.0703021
0.0767336
0.0795158
0.0781378
0.0723325
0.0605381
0.0418888
0.0210932
-0.000262734
-0.012935
-0.0187098
-0.0200304
-0.0174146
-0.0113192
-0.0023207
0.00898932
0.021975
0.0359085
0.0499433
0.0631111
0.0743442
0.0825208
0.0865684
0.0857196
0.079446
0.0656192
0.0430705
0.0111425
-0.0136187
-0.0278756
-0.0338548
-0.0346041
-0.0308581
-0.0232136
-0.012346
0.00110384
0.0164828
0.0330514
0.0499325
0.0660823
0.0802889
0.0911997
0.097429
0.0978692
0.0916349
0.0758952
0.0491153
-0.0059676
-0.034267
-0.0498707
-0.0555492
-0.0550907
-0.0495152
-0.0395941
-0.026114
-0.00975797
0.00882201
0.0288999
0.0495924
0.0697965
0.0881536
0.103047
0.1127
0.11555
0.110191
0.0928332
0.0614103
-0.0318577
-0.0638767
-0.0804176
-0.0850079
-0.0824208
-0.074079
-0.0609815
-0.0440373
-0.0239522
-0.00133774
0.0231446
0.04866
0.0740946
0.0979713
0.118395
0.133125
0.139988
0.136817
0.11844
0.0819328
-0.068668
-0.104604
-0.121345
-0.123591
-0.117516
-0.105127
-0.0877189
-0.0663261
-0.0416377
-0.0141563
0.0156048
0.0469523
0.0788549
0.109793
0.137623
0.159585
0.172726
0.173777
0.15552
0.11357
-0.119403
-0.159358
-0.174915
-0.172758
-0.161148
-0.142929
-0.11976
-0.0927776
-0.062578
-0.0294482
0.00637252
0.0444728
0.0840544
0.123702
0.161135
0.193085
0.215667
0.224076
0.20805
0.160632
-0.188629
-0.232242
-0.243939
-0.233948
-0.213695
-0.187155
-0.156373
-0.122502
-0.0858983
-0.0464726
-0.00401485
0.0415384
0.0898417
0.139829
0.189318
0.234689
0.271074
0.291664
0.281742
0.229775
-0.283975
-0.329305
-0.331832
-0.30828
-0.274709
-0.23644
-0.195764
-0.15361
-0.10984
-0.0637453
-0.014438
0.0388634
0.0965542
0.158277
0.222374
0.285288
0.341397
0.381575
0.384914
0.331834
-0.419318
-0.459671
-0.44235
-0.395792
-0.342129
-0.287739
-0.234615
-0.182929
-0.131609
-0.0789846
-0.0232136
0.0374757
0.104554
0.178838
0.259862
0.344971
0.428617
0.4997
0.529675
0.485392
-0.620531
-0.636743
-0.578676
-0.494192
-0.41124
-0.335657
-0.267779
-0.205976
-0.147535
-0.089382
-0.0284251
0.0383492
0.113808
0.200473
0.299976
0.412026
0.53303
0.651776
0.732772
0.722396
-0.935923
-0.878514
-0.74174
-0.597947
-0.474391
-0.372658
-0.288867
-0.217761
-0.153952
-0.0924625
-0.028716
0.041697
0.123265
0.220719
0.338927
0.482156
0.651998
0.841343
1.01527
1.0975
-1.47642
-1.20663
-0.920502
-0.691386
-0.517303
-0.387542
-0.290059
-0.213335
-0.148122
-0.0872139
-0.0245761
0.045459
0.128939
0.233072
0.367105
0.54268
0.771294
1.05932
1.40329
1.73014
-2.53965
-1.63055
-1.04444
-0.710957
-0.495749
-0.352091
-0.254529
-0.183581
-0.126168
-0.0735935
-0.0192675
0.0427884
0.119214
0.218784
0.354814
0.547985
0.826394
1.23658
1.91168
2.92419
-4.36666
-2.04463
-0.97354
-0.563179
-0.357844
-0.240145
-0.170117
-0.123781
-0.0874796
-0.0535087
-0.016653
0.0276621
0.0846089
0.161731
0.272413
0.4421
0.71822
1.22571
2.41104
4.84853
)
;

boundaryField
{
    movingWall
    {
        type            zeroGradient;
    }
    fixedWalls
    {
        type            zeroGradient;
    }
    frontAndBack
    {
        type            empty;
    }
}


// ************************************************************************* //
