/*--------------------------------*- C++ -*----------------------------------*\
| =========                 |                                                 |
| \\      /  F ield         | OpenFOAM: The Open Source CFD Toolbox           |
|  \\    /   O peration     | Version:  2212                                  |
|   \\  /    A nd           | Website:  www.openfoam.com                      |
|    \\/     M anipulation  |                                                 |
\*---------------------------------------------------------------------------*/
FoamFile
{
    version     2.0;
    format      ascii;
    arch        "LSB;label=32;scalar=64";
    class       volScalarField;
    location    "2.64";
    object      p;
}
// * * * * * * * * * * * * * * * * * * * * * * * * * * * * * * * * * * * * * //

dimensions      [0 2 -2 0 0 0 0];

internalField   nonuniform List<scalar> 
400
(
-4.5052e-09
-0.000143214
-0.000496794
-0.000994682
-0.00160889
-0.00231067
-0.00295292
-0.00333742
-0.00329537
-0.0026789
-0.00135076
0.000711718
0.00322761
0.00542993
0.0064931
0.00603329
0.00429654
0.00256388
0.00155559
0.00146957
0.00011812
-4.5239e-05
-0.000337247
-0.00070152
-0.00115458
-0.00174889
-0.00249026
-0.00324314
-0.00371824
-0.00356705
-0.0025306
-0.000613802
0.00178586
0.0039916
0.00518747
0.0049351
0.00347329
0.00183416
0.00106894
0.00112902
0.000497855
0.000255803
-5.65182e-05
-0.000503473
-0.001224
-0.00234099
-0.00382413
-0.0054279
-0.00672481
-0.00722367
-0.00659076
-0.00488744
-0.00244269
0.000150346
0.00210171
0.00278331
0.00216095
0.00101388
0.000128304
9.86401e-05
0.00103493
0.000662075
0.000176085
-0.000687642
-0.00218956
-0.00443323
-0.00721911
-0.0100928
-0.0124896
-0.0138751
-0.0139197
-0.012645
-0.0102505
-0.00715704
-0.00402688
-0.00158137
-0.000295864
-0.000161232
-0.000750453
-0.00138215
0.0013513
0.000812236
-5.17502e-05
-0.00172557
-0.00447882
-0.00825901
-0.0126056
-0.016845
-0.020347
-0.022655
-0.0235106
-0.0227978
-0.0206173
-0.0172274
-0.0130385
-0.00863637
-0.00479789
-0.00232999
-0.00166802
-0.00342621
0.00100461
0.000259227
-0.00115995
-0.00389425
-0.00810494
-0.0134608
-0.0191893
-0.0244661
-0.0286868
-0.0315303
-0.0328672
-0.0326038
-0.0308003
-0.0275845
-0.0230788
-0.0174887
-0.0113966
-0.00616685
-0.00380147
-0.00586733
-0.000292933
-0.00125818
-0.0032959
-0.00709129
-0.0126121
-0.0191966
-0.0258198
-0.0316103
-0.0360638
-0.03901
-0.0404562
-0.0404271
-0.0389806
-0.0361738
-0.0319684
-0.0262308
-0.0190627
-0.0116687
-0.00713404
-0.00716648
-0.00254062
-0.00367725
-0.0062511
-0.0108725
-0.0173103
-0.0246208
-0.0316329
-0.0375168
-0.041904
-0.0447507
-0.0461495
-0.0462025
-0.0449906
-0.0425556
-0.0388335
-0.033566
-0.0264676
-0.0180323
-0.0109563
-0.00743579
-0.00540268
-0.00661707
-0.00954559
-0.0146607
-0.0215753
-0.0291669
-0.036217
-0.0419783
-0.0461999
-0.0489171
-0.050259
-0.050343
-0.049251
-0.0470399
-0.0437071
-0.0390652
-0.0326576
-0.0242898
-0.0155868
-0.00927637
-0.00837036
-0.00955997
-0.0126394
-0.0179244
-0.0249413
-0.0325065
-0.0394221
-0.0450137
-0.0490987
-0.0517396
-0.0530627
-0.0531654
-0.0521192
-0.0499986
-0.0468773
-0.0427166
-0.0371496
-0.029594
-0.0209016
-0.0132932
-0.0109693
-0.0120626
-0.0150976
-0.0202819
-0.0271183
-0.0344714
-0.0412018
-0.046667
-0.0506927
-0.0533238
-0.0546616
-0.054779
-0.0537333
-0.0516076
-0.048541
-0.0446418
-0.0397935
-0.0332902
-0.0255677
-0.0178517
-0.0129267
-0.0138404
-0.0166723
-0.0215121
-0.0279354
-0.0349453
-0.0414906
-0.0469136
-0.0509766
-0.0536711
-0.055057
-0.0551861
-0.0541034
-0.051899
-0.048762
-0.0449227
-0.0405728
-0.0349599
-0.0283478
-0.0209676
-0.0142018
-0.0148038
-0.01722
-0.0215066
-0.027332
-0.0339014
-0.0402686
-0.0457278
-0.049925
-0.052758
-0.0542307
-0.0543706
-0.053219
-0.0508821
-0.047579
-0.0436067
-0.0395127
-0.0343875
-0.0286686
-0.0215318
-0.0148683
-0.0150479
-0.0168004
-0.0202673
-0.0253002
-0.0313346
-0.0375194
-0.0430749
-0.0474991
-0.0505594
-0.0521814
-0.0523599
-0.0511258
-0.0486034
-0.0450561
-0.040866
-0.0366489
-0.0316082
-0.0268309
-0.0192325
-0.0150369
-0.0147558
-0.0155958
-0.0179464
-0.021971
-0.0273587
-0.033338
-0.0390331
-0.0437699
-0.0471541
-0.0490064
-0.0492688
-0.0479772
-0.0452396
-0.0413821
-0.0368335
-0.0322378
-0.0270979
-0.0234622
-0.0138912
-0.014827
-0.0141545
-0.0137983
-0.0147112
-0.0175313
-0.0221744
-0.0279242
-0.0337893
-0.0389127
-0.0427203
-0.0449097
-0.0453534
-0.0440771
-0.0411568
-0.0369557
-0.0319184
-0.0267658
-0.0213454
-0.0181334
-0.00407107
-0.0143295
-0.0133789
-0.0115553
-0.0108625
-0.0124181
-0.0163148
-0.0218536
-0.0279144
-0.0334782
-0.0377953
-0.0404385
-0.0411847
-0.0400293
-0.037024
-0.032474
-0.0267567
-0.0205659
-0.0138671
-0.00790018
0.0150099
-0.0144253
-0.0125965
-0.0088157
-0.00652544
-0.00700303
-0.0103519
-0.0157933
-0.0220913
-0.0281323
-0.0330204
-0.036228
-0.0374165
-0.0365299
-0.0335701
-0.0286975
-0.0219429
-0.0135044
-0.00219977
0.0146238
0.0552802
-0.0118176
-0.0120061
-0.00628846
-0.0025467
-0.00237621
-0.00554902
-0.0110774
-0.0176558
-0.0241511
-0.0295681
-0.0333503
-0.0350728
-0.0346392
-0.0317899
-0.026385
-0.017621
-0.00427178
0.0184144
0.0581855
0.127685
-0.0295269
-0.0109835
-0.00139866
0.0020875
0.00160478
-0.00194113
-0.00774022
-0.0146185
-0.0214529
-0.0272271
-0.0313636
-0.0334189
-0.0332588
-0.0304724
-0.0244194
-0.0129261
0.00831357
0.0491852
0.120584
0.224092
)
;

boundaryField
{
    movingWall
    {
        type            zeroGradient;
    }
    fixedWalls
    {
        type            zeroGradient;
    }
    frontAndBack
    {
        type            empty;
    }
}


// ************************************************************************* //
